<?xml version="1.0"?>
<VTKFile type="UnstructuredGrid" version="0.1" byte_order="LittleEndian">
  <UnstructuredGrid>
    <Piece NumberOfCells="180" NumberOfPoints="109">
      <CellData Scalars="ReservoirCell">
        <DataArray type="Float32" Name="ReservoirCell" NumberOfComponents="1" format="ascii">
          1875 1875 1875 1875 1875 1875 1875 1875 1875 1875 1875 1875
          1875 1875 1875 1875 1875 1875 1875 1875 1875 1875 1875 1875
          1875 1875 1875 1875 1875 1875 1875 1875 1875 1875 1875 1875
          1875 1875 1875 1875 1875 1875 1875 1875 1875 1875 1875 1875
          1875 1875 1875 1875 1875 1875 1875 1875 1875 1875 1875 1875
          1875 1875 1875 1875 1875 1875 1875 1875 1875 1875 1875 1875
          1875 1875 1875 1875 1875 1875 1875 1875 1875 1875 1875 1875
          1875 1875 1875 1875 1875 1875 1875 1875 1875 1875 1875 1875
          1875 1875 1875 1875 1875 1875 1875 1875 1875 1875 1875 1875
          1875 1875 1875 1875 1875 1875 1875 1875 1875 1875 1875 1875
          1875 1875 1875 1875 1875 1875 1875 1875 1875 1875 1875 1875
          1875 1875 1875 1875 1875 1875 1875 1875 1875 1875 1875 1875
          1875 1875 1875 1875 1875 1875 1875 1875 1875 1875 1875 1875
          1875 1875 1875 1875 1875 1875 1875 1875 1875 1875 1875 1875
          1875 1875 1875 1875 1875 1875 1875 1875 1875 1875 1875 1875
        </DataArray>
        <DataArray type="Float32" Name="ReservoirPerm" NumberOfComponents="1" format="ascii">
          9.86923e-13 9.86923e-13 9.86923e-13 9.86923e-13 9.86923e-13 9.86923e-13 9.86923e-13 9.86923e-13 9.86923e-13 9.86923e-13 9.86923e-13 9.86923e-13
          9.86923e-13 9.86923e-13 9.86923e-13 9.86923e-13 9.86923e-13 9.86923e-13 9.86923e-13 9.86923e-13 9.86923e-13 9.86923e-13 9.86923e-13 9.86923e-13
          9.86923e-13 9.86923e-13 9.86923e-13 9.86923e-13 9.86923e-13 9.86923e-13 9.86923e-13 9.86923e-13 9.86923e-13 9.86923e-13 9.86923e-13 9.86923e-13
          9.86923e-13 9.86923e-13 9.86923e-13 9.86923e-13 9.86923e-13 9.86923e-13 9.86923e-13 9.86923e-13 9.86923e-13 9.86923e-13 9.86923e-13 9.86923e-13
          9.86923e-13 9.86923e-13 9.86923e-13 9.86923e-13 9.86923e-13 9.86923e-13 9.86923e-13 9.86923e-13 9.86923e-13 9.86923e-13 9.86923e-13 9.86923e-13
          9.86923e-13 9.86923e-13 9.86923e-13 9.86923e-13 9.86923e-13 9.86923e-13 9.86923e-13 9.86923e-13 9.86923e-13 9.86923e-13 9.86923e-13 9.86923e-13
          9.86923e-13 9.86923e-13 9.86923e-13 9.86923e-13 9.86923e-13 9.86923e-13 9.86923e-13 9.86923e-13 9.86923e-13 9.86923e-13 9.86923e-13 9.86923e-13
          9.86923e-13 9.86923e-13 9.86923e-13 9.86923e-13 9.86923e-13 9.86923e-13 9.86923e-13 9.86923e-13 9.86923e-13 9.86923e-13 9.86923e-13 9.86923e-13
          9.86923e-13 9.86923e-13 9.86923e-13 9.86923e-13 9.86923e-13 9.86923e-13 9.86923e-13 9.86923e-13 9.86923e-13 9.86923e-13 9.86923e-13 9.86923e-13
          9.86923e-13 9.86923e-13 9.86923e-13 9.86923e-13 9.86923e-13 9.86923e-13 9.86923e-13 9.86923e-13 9.86923e-13 9.86923e-13 9.86923e-13 9.86923e-13
          9.86923e-13 9.86923e-13 9.86923e-13 9.86923e-13 9.86923e-13 9.86923e-13 9.86923e-13 9.86923e-13 9.86923e-13 9.86923e-13 9.86923e-13 9.86923e-13
          9.86923e-13 9.86923e-13 9.86923e-13 9.86923e-13 9.86923e-13 9.86923e-13 9.86923e-13 9.86923e-13 9.86923e-13 9.86923e-13 9.86923e-13 9.86923e-13
          9.86923e-13 9.86923e-13 9.86923e-13 9.86923e-13 9.86923e-13 9.86923e-13 9.86923e-13 9.86923e-13 9.86923e-13 9.86923e-13 9.86923e-13 9.86923e-13
          9.86923e-13 9.86923e-13 9.86923e-13 9.86923e-13 9.86923e-13 9.86923e-13 9.86923e-13 9.86923e-13 9.86923e-13 9.86923e-13 9.86923e-13 9.86923e-13
          9.86923e-13 9.86923e-13 9.86923e-13 9.86923e-13 9.86923e-13 9.86923e-13 9.86923e-13 9.86923e-13 9.86923e-13 9.86923e-13 9.86923e-13 9.86923e-13
        </DataArray>
        <DataArray type="Float32" Name="ReservoirDist" NumberOfComponents="1" format="ascii">
          45.25 45.25 45.25 45.25 45.25 45.25 45.25 45.25 45.25 45.25 45.25 45.25
          45.25 45.25 45.25 45.25 45.25 45.25 45.25 45.25 45.25 45.25 45.25 45.25
          45.25 45.25 45.25 45.25 45.25 45.25 45.25 45.25 45.25 45.25 45.25 45.25
          45.25 45.25 45.25 45.25 45.25 45.25 45.25 45.25 45.25 45.25 45.25 45.25
          45.25 45.25 45.25 45.25 45.25 45.25 45.25 45.25 45.25 45.25 45.25 45.25
          45.25 45.25 45.25 45.25 45.25 45.25 45.25 45.25 45.25 45.25 45.25 45.25
          45.25 45.25 45.25 45.25 45.25 45.25 45.25 45.25 45.25 45.25 45.25 45.25
          45.25 45.25 45.25 45.25 45.25 45.25 45.25 45.25 45.25 45.25 45.25 45.25
          45.25 45.25 45.25 45.25 45.25 45.25 45.25 45.25 45.25 45.25 45.25 45.25
          45.25 45.25 45.25 45.25 45.25 45.25 45.25 45.25 45.25 45.25 45.25 45.25
          45.25 45.25 45.25 45.25 45.25 45.25 45.25 45.25 45.25 45.25 45.25 45.25
          45.25 45.25 45.25 45.25 45.25 45.25 45.25 45.25 45.25 45.25 45.25 45.25
          45.25 45.25 45.25 45.25 45.25 45.25 45.25 45.25 45.25 45.25 45.25 45.25
          45.25 45.25 45.25 45.25 45.25 45.25 45.25 45.25 45.25 45.25 45.25 45.25
          45.25 45.25 45.25 45.25 45.25 45.25 45.25 45.25 45.25 45.25 45.25 45.25
        </DataArray>
        <DataArray type="Float32" Name="ReservoirCStres" NumberOfComponents="1" format="ascii">
          5.55e+06 5.55e+06 5.55e+06 5.55e+06 5.55e+06 5.55e+06 5.55e+06 5.55e+06 5.55e+06 5.55e+06 5.55e+06 5.55e+06
          5.55e+06 5.55e+06 5.55e+06 5.55e+06 5.55e+06 5.55e+06 5.55e+06 5.55e+06 5.55e+06 5.55e+06 5.55e+06 5.55e+06
          5.55e+06 5.55e+06 5.55e+06 5.55e+06 5.55e+06 5.55e+06 5.55e+06 5.55e+06 5.55e+06 5.55e+06 5.55e+06 5.55e+06
          5.55e+06 5.55e+06 5.55e+06 5.55e+06 5.55e+06 5.55e+06 5.55e+06 5.55e+06 5.55e+06 5.55e+06 5.55e+06 5.55e+06
          5.55e+06 5.55e+06 5.55e+06 5.55e+06 5.55e+06 5.55e+06 5.55e+06 5.55e+06 5.55e+06 5.55e+06 5.55e+06 5.55e+06
          5.55e+06 5.55e+06 5.55e+06 5.55e+06 5.55e+06 5.55e+06 5.55e+06 5.55e+06 5.55e+06 5.55e+06 5.55e+06 5.55e+06
          5.55e+06 5.55e+06 5.55e+06 5.55e+06 5.55e+06 5.55e+06 5.55e+06 5.55e+06 5.55e+06 5.55e+06 5.55e+06 5.55e+06
          5.55e+06 5.55e+06 5.55e+06 5.55e+06 5.55e+06 5.55e+06 5.55e+06 5.55e+06 5.55e+06 5.55e+06 5.55e+06 5.55e+06
          5.55e+06 5.55e+06 5.55e+06 5.55e+06 5.55e+06 5.55e+06 5.55e+06 5.55e+06 5.55e+06 5.55e+06 5.55e+06 5.55e+06
          5.55e+06 5.55e+06 5.55e+06 5.55e+06 5.55e+06 5.55e+06 5.55e+06 5.55e+06 5.55e+06 5.55e+06 5.55e+06 5.55e+06
          5.55e+06 5.55e+06 5.55e+06 5.55e+06 5.55e+06 5.55e+06 5.55e+06 5.55e+06 5.55e+06 5.55e+06 5.55e+06 5.55e+06
          5.55e+06 5.55e+06 5.55e+06 5.55e+06 5.55e+06 5.55e+06 5.55e+06 5.55e+06 5.55e+06 5.55e+06 5.55e+06 5.55e+06
          5.55e+06 5.55e+06 5.55e+06 5.55e+06 5.55e+06 5.55e+06 5.55e+06 5.55e+06 5.55e+06 5.55e+06 5.55e+06 5.55e+06
          5.55e+06 5.55e+06 5.55e+06 5.55e+06 5.55e+06 5.55e+06 5.55e+06 5.55e+06 5.55e+06 5.55e+06 5.55e+06 5.55e+06
          5.55e+06 5.55e+06 5.55e+06 5.55e+06 5.55e+06 5.55e+06 5.55e+06 5.55e+06 5.55e+06 5.55e+06 5.55e+06 5.55e+06
        </DataArray>
        <DataArray type="Float32" Name="FracturePressure" NumberOfComponents="1" format="ascii">
          2.63436e+07 2.63431e+07 2.63387e+07 2.63382e+07 2.63337e+07 2.63441e+07 2.63441e+07 2.63397e+07 2.63395e+07 2.6335e+07 2.63347e+07 2.63301e+07
          2.63297e+07 2.6325e+07 2.63244e+07 2.63195e+07 2.63431e+07 2.63436e+07 2.63395e+07 2.63397e+07 2.63355e+07 2.63355e+07 2.63311e+07 2.63309e+07
          2.63264e+07 2.63259e+07 2.63213e+07 2.63207e+07 2.63158e+07 2.63152e+07 2.631e+07 2.63091e+07 2.63038e+07 2.63382e+07 2.63387e+07 2.63347e+07
          2.6335e+07 2.63309e+07 2.63311e+07 2.63269e+07 2.63269e+07 2.63227e+07 2.63223e+07 2.63178e+07 2.63171e+07 2.63122e+07 2.63114e+07 2.63063e+07
          2.63056e+07 2.63003e+07 2.62994e+07 2.6294e+07 2.63337e+07 2.63297e+07 2.63301e+07 2.63259e+07 2.63264e+07 2.63223e+07 2.63227e+07 2.63188e+07
          2.63188e+07 2.63149e+07 2.63139e+07 2.6309e+07 2.6308e+07 2.63027e+07 2.63018e+07 2.62965e+07 2.62957e+07 2.62904e+07 2.62895e+07 2.63244e+07
          2.6325e+07 2.63207e+07 2.63213e+07 2.63171e+07 2.63178e+07 2.63139e+07 2.63149e+07 2.6312e+07 2.6312e+07 2.63071e+07 2.63051e+07 2.62992e+07
          2.62981e+07 2.62925e+07 2.62918e+07 2.62863e+07 2.62857e+07 2.62802e+07 2.63195e+07 2.63152e+07 2.63158e+07 2.63114e+07 2.63122e+07 2.6308e+07
          2.6309e+07 2.63051e+07 2.63071e+07 2.63022e+07 2.63022e+07 2.62953e+07 2.62943e+07 2.62883e+07 2.62876e+07 2.6282e+07 2.62814e+07 2.62759e+07
          2.62753e+07 2.63091e+07 2.631e+07 2.63056e+07 2.63063e+07 2.63018e+07 2.63027e+07 2.62981e+07 2.62992e+07 2.62943e+07 2.62953e+07 2.62894e+07
          2.62894e+07 2.62834e+07 2.6283e+07 2.62773e+07 2.62768e+07 2.62712e+07 2.62707e+07 2.62649e+07 2.63038e+07 2.62994e+07 2.63003e+07 2.62957e+07
          2.62965e+07 2.62918e+07 2.62925e+07 2.62876e+07 2.62883e+07 2.6283e+07 2.62834e+07 2.62778e+07 2.62778e+07 2.62722e+07 2.62719e+07 2.62663e+07
          2.62659e+07 2.62601e+07 2.62595e+07 2.6294e+07 2.62895e+07 2.62904e+07 2.62857e+07 2.62863e+07 2.62814e+07 2.6282e+07 2.62768e+07 2.62773e+07
          2.62719e+07 2.62722e+07 2.62667e+07 2.62667e+07 2.62611e+07 2.62609e+07 2.6255e+07 2.62546e+07 2.62802e+07 2.62753e+07 2.62759e+07 2.62707e+07
          2.62712e+07 2.62659e+07 2.62663e+07 2.62609e+07 2.62611e+07 2.62556e+07 2.62556e+07 2.62649e+07 2.62595e+07 2.62601e+07 2.62546e+07 2.6255e+07
        </DataArray>
        <DataArray type="Float32" Name="FractureHead" NumberOfComponents="1" format="ascii">
          -10682.5 -11097 -10597.7 -11108 -10702.5 -10131 -10131 -9597.43 -9815.49 -9380.84 -9743.94 -9389.5
          -9834.78 -9626.3 -10177.5 -10189 -11097 -10682.5 -9815.49 -9597.43 -8972.34 -8972.34 -8430.07 -8663.82
          -8235.91 -8671.36 -8444.45 -8997.93 -9007.26 -9650.19 -9883.35 -10784.6 -11222.3 -11108 -10597.7 -9743.94
          -9380.84 -8663.82 -8430.07 -7711.27 -7711.27 -7031.56 -7425.52 -7035.65 -7722.65 -7728.53 -8460.16 -8704.56
          -9441.46 -9821.27 -10707.9 -11245.3 -10702.5 -9834.78 -9389.5 -8671.36 -8235.91 -7425.52 -7031.56 -6001.3
          -6001.3 -4991.59 -6003.02 -6004.68 -7044.1 -7446.02 -8271.35 -8720.04 -9459.29 -9923.21 -10826.3 -10177.5
          -9626.3 -8997.93 -8444.45 -7722.65 -7035.65 -6003.02 -4991.59 -3015.42 -3015.42 -3009.37 -4990.02 -6008.18
          -7052.44 -7751.73 -8489.61 -9059.75 -9709.67 -10285 -10189 -9650.19 -9007.26 -8460.16 -7728.53 -7044.1
          -6004.68 -4990.02 -3009.37 -3003.3 -3003.3 -4988.47 -6009.88 -7061.08 -7757.75 -8505.77 -9069.38 -9734.45
          -10297 -10784.6 -9883.35 -9441.46 -8704.56 -8271.35 -7446.02 -7052.44 -6008.18 -6009.88 -4988.47 -6011.66
          -6011.66 -7065.32 -7466.93 -8307.65 -8754.18 -9512.97 -9973.58 -10911.9 -11222.3 -10707.9 -9821.27 -9459.29
          -8720.04 -8489.61 -7751.73 -7757.75 -7061.08 -7466.93 -7065.32 -7769.59 -7769.59 -8520.84 -8762.12 -9522.16
          -9901.18 -10822.5 -11364.6 -11245.3 -10826.3 -9923.21 -9709.67 -9059.75 -9069.38 -8505.77 -8754.18 -8307.65
          -8762.12 -8520.84 -9096.29 -9096.29 -9765.09 -9994.17 -10933.6 -11376.6 -10285 -10297 -9734.45 -9973.58
          -9512.97 -9901.18 -9522.16 -9994.17 -9765.09 -10346.5 -10346.5 -10911.9 -11364.6 -10822.5 -11376.6 -10933.6
        </DataArray>
        <DataArray type="Float32" Name="ReservoirPressure" NumberOfComponents="1" format="ascii">
          2.20925e+07 2.20925e+07 2.20925e+07 2.20925e+07 2.20925e+07 2.20925e+07 2.20925e+07 2.20925e+07 2.20925e+07 2.20925e+07 2.20925e+07 2.20925e+07
          2.20925e+07 2.20925e+07 2.20925e+07 2.20925e+07 2.20925e+07 2.20925e+07 2.20925e+07 2.20925e+07 2.20925e+07 2.20925e+07 2.20925e+07 2.20925e+07
          2.20925e+07 2.20925e+07 2.20925e+07 2.20925e+07 2.20925e+07 2.20925e+07 2.20925e+07 2.20925e+07 2.20925e+07 2.20925e+07 2.20925e+07 2.20925e+07
          2.20925e+07 2.20925e+07 2.20925e+07 2.20925e+07 2.20925e+07 2.20925e+07 2.20925e+07 2.20925e+07 2.20925e+07 2.20925e+07 2.20925e+07 2.20925e+07
          2.20925e+07 2.20925e+07 2.20925e+07 2.20925e+07 2.20925e+07 2.20925e+07 2.20925e+07 2.20925e+07 2.20925e+07 2.20925e+07 2.20925e+07 2.20925e+07
          2.20925e+07 2.20925e+07 2.20925e+07 2.20925e+07 2.20925e+07 2.20925e+07 2.20925e+07 2.20925e+07 2.20925e+07 2.20925e+07 2.20925e+07 2.20925e+07
          2.20925e+07 2.20925e+07 2.20925e+07 2.20925e+07 2.20925e+07 2.20925e+07 2.20925e+07 2.20925e+07 2.20925e+07 2.20925e+07 2.20925e+07 2.20925e+07
          2.20925e+07 2.20925e+07 2.20925e+07 2.20925e+07 2.20925e+07 2.20925e+07 2.20925e+07 2.20925e+07 2.20925e+07 2.20925e+07 2.20925e+07 2.20925e+07
          2.20925e+07 2.20925e+07 2.20925e+07 2.20925e+07 2.20925e+07 2.20925e+07 2.20925e+07 2.20925e+07 2.20925e+07 2.20925e+07 2.20925e+07 2.20925e+07
          2.20925e+07 2.20925e+07 2.20925e+07 2.20925e+07 2.20925e+07 2.20925e+07 2.20925e+07 2.20925e+07 2.20925e+07 2.20925e+07 2.20925e+07 2.20925e+07
          2.20925e+07 2.20925e+07 2.20925e+07 2.20925e+07 2.20925e+07 2.20925e+07 2.20925e+07 2.20925e+07 2.20925e+07 2.20925e+07 2.20925e+07 2.20925e+07
          2.20925e+07 2.20925e+07 2.20925e+07 2.20925e+07 2.20925e+07 2.20925e+07 2.20925e+07 2.20925e+07 2.20925e+07 2.20925e+07 2.20925e+07 2.20925e+07
          2.20925e+07 2.20925e+07 2.20925e+07 2.20925e+07 2.20925e+07 2.20925e+07 2.20925e+07 2.20925e+07 2.20925e+07 2.20925e+07 2.20925e+07 2.20925e+07
          2.20925e+07 2.20925e+07 2.20925e+07 2.20925e+07 2.20925e+07 2.20925e+07 2.20925e+07 2.20925e+07 2.20925e+07 2.20925e+07 2.20925e+07 2.20925e+07
          2.20925e+07 2.20925e+07 2.20925e+07 2.20925e+07 2.20925e+07 2.20925e+07 2.20925e+07 2.20925e+07 2.20925e+07 2.20925e+07 2.20925e+07 2.20925e+07
        </DataArray>
        <DataArray type="Float32" Name="LeakofDP" NumberOfComponents="1" format="ascii">
          4.20691e+06 4.20649e+06 4.20699e+06 4.20648e+06 4.20689e+06 4.20746e+06 4.20746e+06 4.20799e+06 4.20777e+06 4.20821e+06 4.20784e+06 4.2082e+06
          4.20775e+06 4.20796e+06 4.20741e+06 4.2074e+06 4.20649e+06 4.20691e+06 4.20777e+06 4.20799e+06 4.20862e+06 4.20862e+06 4.20916e+06 4.20892e+06
          4.20935e+06 4.20892e+06 4.20914e+06 4.20859e+06 4.20858e+06 4.20794e+06 4.2077e+06 4.2068e+06 4.20637e+06 4.20648e+06 4.20699e+06 4.20784e+06
          4.20821e+06 4.20892e+06 4.20916e+06 4.20988e+06 4.20988e+06 4.21056e+06 4.21016e+06 4.21055e+06 4.20987e+06 4.20986e+06 4.20913e+06 4.20888e+06
          4.20815e+06 4.20777e+06 4.20688e+06 4.20634e+06 4.20689e+06 4.20775e+06 4.2082e+06 4.20892e+06 4.20935e+06 4.21016e+06 4.21056e+06 4.21159e+06
          4.21159e+06 4.2126e+06 4.21158e+06 4.21158e+06 4.21054e+06 4.21014e+06 4.20932e+06 4.20887e+06 4.20813e+06 4.20766e+06 4.20676e+06 4.20741e+06
          4.20796e+06 4.20859e+06 4.20914e+06 4.20987e+06 4.21055e+06 4.21158e+06 4.2126e+06 4.21457e+06 4.21457e+06 4.21458e+06 4.2126e+06 4.21158e+06
          4.21054e+06 4.20984e+06 4.2091e+06 4.20853e+06 4.20788e+06 4.2073e+06 4.2074e+06 4.20794e+06 4.20858e+06 4.20913e+06 4.20986e+06 4.21054e+06
          4.21158e+06 4.2126e+06 4.21458e+06 4.21458e+06 4.21458e+06 4.2126e+06 4.21158e+06 4.21053e+06 4.20983e+06 4.20908e+06 4.20852e+06 4.20785e+06
          4.20729e+06 4.2068e+06 4.2077e+06 4.20815e+06 4.20888e+06 4.20932e+06 4.21014e+06 4.21054e+06 4.21158e+06 4.21158e+06 4.2126e+06 4.21158e+06
          4.21158e+06 4.21052e+06 4.21012e+06 4.20928e+06 4.20883e+06 4.20808e+06 4.20761e+06 4.20668e+06 4.20637e+06 4.20688e+06 4.20777e+06 4.20813e+06
          4.20887e+06 4.2091e+06 4.20984e+06 4.20983e+06 4.21053e+06 4.21012e+06 4.21052e+06 4.20982e+06 4.20982e+06 4.20907e+06 4.20883e+06 4.20807e+06
          4.20769e+06 4.20677e+06 4.20622e+06 4.20634e+06 4.20676e+06 4.20766e+06 4.20788e+06 4.20853e+06 4.20852e+06 4.20908e+06 4.20883e+06 4.20928e+06
          4.20883e+06 4.20907e+06 4.20849e+06 4.20849e+06 4.20782e+06 4.20759e+06 4.20665e+06 4.20621e+06 4.2073e+06 4.20729e+06 4.20785e+06 4.20761e+06
          4.20808e+06 4.20769e+06 4.20807e+06 4.20759e+06 4.20782e+06 4.20724e+06 4.20724e+06 4.20668e+06 4.20622e+06 4.20677e+06 4.20621e+06 4.20665e+06
        </DataArray>
        <DataArray type="Float32" Name="FilterCakeThickness" NumberOfComponents="1" format="ascii">
          0 0 0 0 0 0 0 0 0 0 0 0
          0 0 0 0 0 0 0 0 0 0 0 0
          0 0 0 0 0 0 0 0 0 0 0 0
          0 0 0 0 0 0 0 0 0 0 0 0
          0 0 0 0 0 0 0 0 0 0 0 0
          0 0 0 0 0 0 0 0 0 0 0 0
          0 0 0 0 0 0 0 0 0 0 0 0
          0 0 0 0 0 0 0 0 0 0 0 0
          0 0 0 0 0 0 0 0 0 0 0 0
          0 0 0 0 0 0 0 0 0 0 0 0
          0 0 0 0 0 0 0 0 0 0 0 0
          0 0 0 0 0 0 0 0 0 0 0 0
          0 0 0 0 0 0 0 0 0 0 0 0
          0 0 0 0 0 0 0 0 0 0 0 0
          0 0 0 0 0 0 0 0 0 0 0 0
        </DataArray>
        <DataArray type="Float32" Name="ReservoirTraction" NumberOfComponents="1" format="ascii">
          2.43203e+07 2.43203e+07 2.43203e+07 2.43203e+07 2.43203e+07 2.43203e+07 2.43203e+07 2.43203e+07 2.43203e+07 2.43203e+07 2.43203e+07 2.43203e+07
          2.43203e+07 2.43203e+07 2.43203e+07 2.43203e+07 2.43203e+07 2.43203e+07 2.43203e+07 2.43203e+07 2.43203e+07 2.43203e+07 2.43203e+07 2.43203e+07
          2.43203e+07 2.43203e+07 2.43203e+07 2.43203e+07 2.43203e+07 2.43203e+07 2.43203e+07 2.43203e+07 2.43203e+07 2.43203e+07 2.43203e+07 2.43203e+07
          2.43203e+07 2.43203e+07 2.43203e+07 2.43203e+07 2.43203e+07 2.43203e+07 2.43203e+07 2.43203e+07 2.43203e+07 2.43203e+07 2.43203e+07 2.43203e+07
          2.43203e+07 2.43203e+07 2.43203e+07 2.43203e+07 2.43203e+07 2.43203e+07 2.43203e+07 2.43203e+07 2.43203e+07 2.43203e+07 2.43203e+07 2.43203e+07
          2.43203e+07 2.43203e+07 2.43203e+07 2.43203e+07 2.43203e+07 2.43203e+07 2.43203e+07 2.43203e+07 2.43203e+07 2.43203e+07 2.43203e+07 2.43203e+07
          2.43203e+07 2.43203e+07 2.43203e+07 2.43203e+07 2.43203e+07 2.43203e+07 2.43203e+07 2.43203e+07 2.43203e+07 2.43203e+07 2.43203e+07 2.43203e+07
          2.43203e+07 2.43203e+07 2.43203e+07 2.43203e+07 2.43203e+07 2.43203e+07 2.43203e+07 2.43203e+07 2.43203e+07 2.43203e+07 2.43203e+07 2.43203e+07
          2.43203e+07 2.43203e+07 2.43203e+07 2.43203e+07 2.43203e+07 2.43203e+07 2.43203e+07 2.43203e+07 2.43203e+07 2.43203e+07 2.43203e+07 2.43203e+07
          2.43203e+07 2.43203e+07 2.43203e+07 2.43203e+07 2.43203e+07 2.43203e+07 2.43203e+07 2.43203e+07 2.43203e+07 2.43203e+07 2.43203e+07 2.43203e+07
          2.43203e+07 2.43203e+07 2.43203e+07 2.43203e+07 2.43203e+07 2.43203e+07 2.43203e+07 2.43203e+07 2.43203e+07 2.43203e+07 2.43203e+07 2.43203e+07
          2.43203e+07 2.43203e+07 2.43203e+07 2.43203e+07 2.43203e+07 2.43203e+07 2.43203e+07 2.43203e+07 2.43203e+07 2.43203e+07 2.43203e+07 2.43203e+07
          2.43203e+07 2.43203e+07 2.43203e+07 2.43203e+07 2.43203e+07 2.43203e+07 2.43203e+07 2.43203e+07 2.43203e+07 2.43203e+07 2.43203e+07 2.43203e+07
          2.43203e+07 2.43203e+07 2.43203e+07 2.43203e+07 2.43203e+07 2.43203e+07 2.43203e+07 2.43203e+07 2.43203e+07 2.43203e+07 2.43203e+07 2.43203e+07
          2.43203e+07 2.43203e+07 2.43203e+07 2.43203e+07 2.43203e+07 2.43203e+07 2.43203e+07 2.43203e+07 2.43203e+07 2.43203e+07 2.43203e+07 2.43203e+07
        </DataArray>
        <DataArray type="Float32" Name="FractureForce" NumberOfComponents="1" format="ascii">
          -2.02323e+06 -2.02282e+06 -2.01842e+06 -2.01791e+06 -2.01341e+06 -2.02379e+06 -2.02379e+06 -2.01942e+06 -2.0192e+06 -2.01473e+06 -2.01437e+06 -2.00982e+06
          -2.00937e+06 -2.00468e+06 -2.00413e+06 -1.99921e+06 -2.02282e+06 -2.02323e+06 -2.0192e+06 -2.01942e+06 -2.01514e+06 -2.01514e+06 -2.01078e+06 -2.01054e+06
          -2.00607e+06 -2.00563e+06 -2.00096e+06 -2.0004e+06 -1.99549e+06 -1.99485e+06 -1.98971e+06 -1.98881e+06 -1.98347e+06 -2.01791e+06 -2.01842e+06 -2.01437e+06
          -2.01473e+06 -2.01054e+06 -2.01078e+06 -2.00659e+06 -2.00659e+06 -2.00237e+06 -2.00197e+06 -1.99746e+06 -1.99677e+06 -1.99186e+06 -1.99113e+06 -1.98599e+06
          -1.98525e+06 -1.97997e+06 -1.97908e+06 -1.97364e+06 -2.01341e+06 -2.00937e+06 -2.00982e+06 -2.00563e+06 -2.00607e+06 -2.00197e+06 -2.00237e+06 -1.9985e+06
          -1.9985e+06 -1.9946e+06 -1.99359e+06 -1.98869e+06 -1.98765e+06 -1.98234e+06 -1.98152e+06 -1.97616e+06 -1.97542e+06 -1.97006e+06 -1.96915e+06 -2.00413e+06
          -2.00468e+06 -2.0004e+06 -2.00096e+06 -1.99677e+06 -1.99746e+06 -1.99359e+06 -1.9946e+06 -1.99167e+06 -1.99167e+06 -1.98678e+06 -1.9848e+06 -1.97888e+06
          -1.97783e+06 -1.97223e+06 -1.97149e+06 -1.96602e+06 -1.96537e+06 -1.95989e+06 -1.99921e+06 -1.99485e+06 -1.99549e+06 -1.99113e+06 -1.99186e+06 -1.98765e+06
          -1.98869e+06 -1.9848e+06 -1.98678e+06 -1.98188e+06 -1.98188e+06 -1.97499e+06 -1.97397e+06 -1.96802e+06 -1.96732e+06 -1.96167e+06 -1.9611e+06 -1.95554e+06
          -1.95497e+06 -1.98881e+06 -1.98971e+06 -1.98525e+06 -1.98599e+06 -1.98152e+06 -1.98234e+06 -1.97783e+06 -1.97888e+06 -1.97397e+06 -1.97499e+06 -1.96906e+06
          -1.96906e+06 -1.96311e+06 -1.96271e+06 -1.95696e+06 -1.95652e+06 -1.95085e+06 -1.95039e+06 -1.94455e+06 -1.98347e+06 -1.97908e+06 -1.97997e+06 -1.97542e+06
          -1.97616e+06 -1.97149e+06 -1.97223e+06 -1.96732e+06 -1.96802e+06 -1.96271e+06 -1.96311e+06 -1.9575e+06 -1.9575e+06 -1.95185e+06 -1.9516e+06 -1.94594e+06
          -1.94556e+06 -1.93974e+06 -1.9392e+06 -1.97364e+06 -1.96915e+06 -1.97006e+06 -1.96537e+06 -1.96602e+06 -1.9611e+06 -1.96167e+06 -1.95652e+06 -1.95696e+06
          -1.9516e+06 -1.95185e+06 -1.94637e+06 -1.94637e+06 -1.9408e+06 -1.94057e+06 -1.93472e+06 -1.93428e+06 -1.95989e+06 -1.95497e+06 -1.95554e+06 -1.95039e+06
          -1.95085e+06 -1.94556e+06 -1.94594e+06 -1.94057e+06 -1.9408e+06 -1.93531e+06 -1.93531e+06 -1.94455e+06 -1.9392e+06 -1.93974e+06 -1.93428e+06 -1.93472e+06
        </DataArray>
        <DataArray type="Float32" Name="ReservoirMobility" NumberOfComponents="1" format="ascii">
          2523.6 2523.6 2523.6 2523.6 2523.6 2523.6 2523.6 2523.6 2523.6 2523.6 2523.6 2523.6
          2523.6 2523.6 2523.6 2523.6 2523.6 2523.6 2523.6 2523.6 2523.6 2523.6 2523.6 2523.6
          2523.6 2523.6 2523.6 2523.6 2523.6 2523.6 2523.6 2523.6 2523.6 2523.6 2523.6 2523.6
          2523.6 2523.6 2523.6 2523.6 2523.6 2523.6 2523.6 2523.6 2523.6 2523.6 2523.6 2523.6
          2523.6 2523.6 2523.6 2523.6 2523.6 2523.6 2523.6 2523.6 2523.6 2523.6 2523.6 2523.6
          2523.6 2523.6 2523.6 2523.6 2523.6 2523.6 2523.6 2523.6 2523.6 2523.6 2523.6 2523.6
          2523.6 2523.6 2523.6 2523.6 2523.6 2523.6 2523.6 2523.6 2523.6 2523.6 2523.6 2523.6
          2523.6 2523.6 2523.6 2523.6 2523.6 2523.6 2523.6 2523.6 2523.6 2523.6 2523.6 2523.6
          2523.6 2523.6 2523.6 2523.6 2523.6 2523.6 2523.6 2523.6 2523.6 2523.6 2523.6 2523.6
          2523.6 2523.6 2523.6 2523.6 2523.6 2523.6 2523.6 2523.6 2523.6 2523.6 2523.6 2523.6
          2523.6 2523.6 2523.6 2523.6 2523.6 2523.6 2523.6 2523.6 2523.6 2523.6 2523.6 2523.6
          2523.6 2523.6 2523.6 2523.6 2523.6 2523.6 2523.6 2523.6 2523.6 2523.6 2523.6 2523.6
          2523.6 2523.6 2523.6 2523.6 2523.6 2523.6 2523.6 2523.6 2523.6 2523.6 2523.6 2523.6
          2523.6 2523.6 2523.6 2523.6 2523.6 2523.6 2523.6 2523.6 2523.6 2523.6 2523.6 2523.6
          2523.6 2523.6 2523.6 2523.6 2523.6 2523.6 2523.6 2523.6 2523.6 2523.6 2523.6 2523.6
        </DataArray>
        <DataArray type="Float32" Name="LeakOfRate" NumberOfComponents="1" format="ascii">
          0.000231552 0.000231529 0.000231556 0.000231528 0.00023155 0.000231582 0.000231582 0.000231611 0.000231599 0.000231623 0.000231603 0.000231623
          0.000231598 0.00023161 0.000231579 0.000231579 0.000231529 0.000231552 0.000231599 0.000231611 0.000231646 0.000231646 0.000231676 0.000231663
          0.000231686 0.000231662 0.000231675 0.000231644 0.000231644 0.000231608 0.000231596 0.000231546 0.000231522 0.000231528 0.000231556 0.000231603
          0.000231623 0.000231663 0.000231676 0.000231715 0.000231715 0.000231752 0.000231731 0.000231752 0.000231714 0.000231714 0.000231674 0.00023166
          0.00023162 0.000231599 0.00023155 0.000231521 0.00023155 0.000231598 0.000231623 0.000231662 0.000231686 0.000231731 0.000231752 0.000231809
          0.000231809 0.000231865 0.000231809 0.000231809 0.000231752 0.00023173 0.000231684 0.00023166 0.000231619 0.000231593 0.000231544 0.000231579
          0.00023161 0.000231644 0.000231675 0.000231714 0.000231752 0.000231809 0.000231865 0.000231974 0.000231974 0.000231974 0.000231865 0.000231809
          0.000231751 0.000231713 0.000231672 0.000231641 0.000231605 0.000231573 0.000231579 0.000231608 0.000231644 0.000231674 0.000231714 0.000231752
          0.000231809 0.000231865 0.000231974 0.000231974 0.000231974 0.000231865 0.000231809 0.000231751 0.000231713 0.000231671 0.00023164 0.000231604
          0.000231573 0.000231546 0.000231596 0.00023162 0.00023166 0.000231684 0.00023173 0.000231751 0.000231809 0.000231809 0.000231865 0.000231809
          0.000231809 0.000231751 0.000231729 0.000231682 0.000231658 0.000231616 0.000231591 0.000231539 0.000231522 0.00023155 0.000231599 0.000231619
          0.00023166 0.000231672 0.000231713 0.000231713 0.000231751 0.000231729 0.000231751 0.000231712 0.000231712 0.000231671 0.000231657 0.000231615
          0.000231595 0.000231544 0.000231514 0.000231521 0.000231544 0.000231593 0.000231605 0.000231641 0.00023164 0.000231671 0.000231658 0.000231682
          0.000231657 0.000231671 0.000231639 0.000231639 0.000231602 0.000231589 0.000231538 0.000231513 0.000231573 0.000231573 0.000231604 0.000231591
          0.000231616 0.000231595 0.000231615 0.000231589 0.000231602 0.00023157 0.00023157 0.000231539 0.000231514 0.000231544 0.000231513 0.000231538
        </DataArray>
        <DataArray type="Float32" Name="WellIndex" NumberOfComponents="1" format="ascii">
          8.21586e-13 8.21586e-13 8.21586e-13 8.21586e-13 8.21586e-13 8.21586e-13 8.21586e-13 8.21586e-13 8.21586e-13 8.21586e-13 8.21586e-13 8.21586e-13
          8.21586e-13 8.21586e-13 8.21586e-13 8.21586e-13 8.21586e-13 8.21586e-13 8.21586e-13 8.21586e-13 8.21586e-13 8.21586e-13 8.21586e-13 8.21586e-13
          8.21586e-13 8.21586e-13 8.21586e-13 8.21586e-13 8.21586e-13 8.21586e-13 8.21586e-13 8.21586e-13 8.21586e-13 8.21586e-13 8.21586e-13 8.21586e-13
          8.21586e-13 8.21586e-13 8.21586e-13 8.21586e-13 8.21586e-13 8.21586e-13 8.21586e-13 8.21586e-13 8.21586e-13 8.21586e-13 8.21586e-13 8.21586e-13
          8.21586e-13 8.21586e-13 8.21586e-13 8.21586e-13 8.21586e-13 8.21586e-13 8.21586e-13 8.21586e-13 8.21586e-13 8.21586e-13 8.21586e-13 8.21586e-13
          8.21586e-13 8.21586e-13 8.21586e-13 8.21586e-13 8.21586e-13 8.21586e-13 8.21586e-13 8.21586e-13 8.21586e-13 8.21586e-13 8.21586e-13 8.21586e-13
          8.21586e-13 8.21586e-13 8.21586e-13 8.21586e-13 8.21586e-13 8.21586e-13 8.21586e-13 8.21586e-13 8.21586e-13 8.21586e-13 8.21586e-13 8.21586e-13
          8.21586e-13 8.21586e-13 8.21586e-13 8.21586e-13 8.21586e-13 8.21586e-13 8.21586e-13 8.21586e-13 8.21586e-13 8.21586e-13 8.21586e-13 8.21586e-13
          8.21586e-13 8.21586e-13 8.21586e-13 8.21586e-13 8.21586e-13 8.21586e-13 8.21586e-13 8.21586e-13 8.21586e-13 8.21586e-13 8.21586e-13 8.21586e-13
          8.21586e-13 8.21586e-13 8.21586e-13 8.21586e-13 8.21586e-13 8.21586e-13 8.21586e-13 8.21586e-13 8.21586e-13 8.21586e-13 8.21586e-13 8.21586e-13
          8.21586e-13 8.21586e-13 8.21586e-13 8.21586e-13 8.21586e-13 8.21586e-13 8.21586e-13 8.21586e-13 8.21586e-13 8.21586e-13 8.21586e-13 8.21586e-13
          8.21586e-13 8.21586e-13 8.21586e-13 8.21586e-13 8.21586e-13 8.21586e-13 8.21586e-13 8.21586e-13 8.21586e-13 8.21586e-13 8.21586e-13 8.21586e-13
          8.21586e-13 8.21586e-13 8.21586e-13 8.21586e-13 8.21586e-13 8.21586e-13 8.21586e-13 8.21586e-13 8.21586e-13 8.21586e-13 8.21586e-13 8.21586e-13
          8.21586e-13 8.21586e-13 8.21586e-13 8.21586e-13 8.21586e-13 8.21586e-13 8.21586e-13 8.21586e-13 8.21586e-13 8.21586e-13 8.21586e-13 8.21586e-13
          8.21586e-13 8.21586e-13 8.21586e-13 8.21586e-13 8.21586e-13 8.21586e-13 8.21586e-13 8.21586e-13 8.21586e-13 8.21586e-13 8.21586e-13 8.21586e-13
        </DataArray>
        <DataArray type="Float32" Name="FractureWidth" NumberOfComponents="1" format="ascii">
          0.000668707 0.000622087 0.000805833 0.000621156 0.000666732 0.000708069 0.000708069 0.000980987 0.000954568 0.00111322 0.00103628 0.00111147
          0.000951589 0.000976292 0.000703496 0.000702345 0.000622087 0.000668707 0.000954568 0.000980987 0.00117786 0.00117786 0.00130714 0.00127375
          0.00134874 0.0012717 0.0013029 0.00117214 0.00117016 0.00097294 0.000945071 0.000660814 0.000613701 0.000621156 0.000805833 0.00103628
          0.00111322 0.00127375 0.00130714 0.00141814 0.00141814 0.00148694 0.00145317 0.0014845 0.0014135 0.00141116 0.00129855 0.00126325
          0.00110216 0.00102426 0.000795071 0.00061184 0.000666732 0.000951589 0.00111147 0.0012717 0.00134874 0.00145317 0.00148694 0.00155134
          0.00155134 0.00158125 0.0015488 0.00154624 0.0014796 0.0014436 0.00133764 0.00125915 0.00109866 0.000939114 0.000656863 0.000703496
          0.000976292 0.00117214 0.0013029 0.0014135 0.0014845 0.0015488 0.00158125 0.0016105 0.0016105 0.00160784 0.00157604 0.00154114
          0.00147473 0.00140188 0.00129007 0.00115871 0.000963548 0.000693199 0.000702345 0.00097294 0.00117016 0.00129855 0.00141116 0.0014796
          0.00154624 0.00157604 0.00160784 0.00160519 0.00160519 0.00157083 0.00153859 0.00146983 0.00139954 0.00128572 0.00115673 0.000960196
          0.000692048 0.000660814 0.000945071 0.00110216 0.00126325 0.00133764 0.0014436 0.00147473 0.00154114 0.00153859 0.00157083 0.00153604
          0.00153604 0.0014674 0.00143404 0.00132654 0.00125071 0.00108935 0.000932595 0.000650945 0.000613701 0.000795071 0.00102426 0.00109866
          0.00125915 0.00129007 0.00140188 0.00139954 0.00146983 0.00143404 0.0014674 0.0013949 0.0013949 0.00128148 0.00124866 0.0010876