<?xml version="1.0"?>
<VTKFile type="UnstructuredGrid" version="0.1" byte_order="LittleEndian">
  <UnstructuredGrid>
    <Piece NumberOfCells="156" NumberOfPoints="91">
      <CellData Scalars="ReservoirCell">
        <DataArray type="Float32" Name="ReservoirCell" NumberOfComponents="1" format="ascii">
          1875 1875 1875 1875 1875 1875 1875 1875 1875 1875 1875 1875
          1875 1875 1875 1875 1875 1875 1875 1875 1875 1875 1875 1875
          1875 1875 1875 1875 1875 1875 1875 1875 1875 1875 1875 1875
          1875 1875 1875 1875 1875 1875 1875 1875 1875 1875 1875 1875
          1875 1875 1875 1875 1875 1875 1875 1875 1875 1875 1875 1875
          1875 1875 1875 1875 1875 1875 1875 1875 1875 1875 1875 1875
          1875 1875 1875 1875 1875 1875 1875 1875 1875 1875 1875 1875
          1875 1875 1875 1875 1875 1875 1875 1875 1875 1875 1875 1875
          1875 1875 1875 1875 1875 1875 1875 1875 1875 1875 1875 1875
          1875 1875 1875 1875 1875 1875 1875 1875 1875 1875 1875 1875
          1875 1875 1875 1875 1875 1875 1875 1875 1875 1875 1875 1875
          1875 1875 1875 1875 1875 1875 1875 1875 1875 1875 1875 1875
          1875 1875 1875 1875 1875 1875 1875 1875 1875 1875 1875 1875
        </DataArray>
        <DataArray type="Float32" Name="ReservoirPerm" NumberOfComponents="1" format="ascii">
          9.86923e-13 9.86923e-13 9.86923e-13 9.86923e-13 9.86923e-13 9.86923e-13 9.86923e-13 9.86923e-13 9.86923e-13 9.86923e-13 9.86923e-13 9.86923e-13
          9.86923e-13 9.86923e-13 9.86923e-13 9.86923e-13 9.86923e-13 9.86923e-13 9.86923e-13 9.86923e-13 9.86923e-13 9.86923e-13 9.86923e-13 9.86923e-13
          9.86923e-13 9.86923e-13 9.86923e-13 9.86923e-13 9.86923e-13 9.86923e-13 9.86923e-13 9.86923e-13 9.86923e-13 9.86923e-13 9.86923e-13 9.86923e-13
          9.86923e-13 9.86923e-13 9.86923e-13 9.86923e-13 9.86923e-13 9.86923e-13 9.86923e-13 9.86923e-13 9.86923e-13 9.86923e-13 9.86923e-13 9.86923e-13
          9.86923e-13 9.86923e-13 9.86923e-13 9.86923e-13 9.86923e-13 9.86923e-13 9.86923e-13 9.86923e-13 9.86923e-13 9.86923e-13 9.86923e-13 9.86923e-13
          9.86923e-13 9.86923e-13 9.86923e-13 9.86923e-13 9.86923e-13 9.86923e-13 9.86923e-13 9.86923e-13 9.86923e-13 9.86923e-13 9.86923e-13 9.86923e-13
          9.86923e-13 9.86923e-13 9.86923e-13 9.86923e-13 9.86923e-13 9.86923e-13 9.86923e-13 9.86923e-13 9.86923e-13 9.86923e-13 9.86923e-13 9.86923e-13
          9.86923e-13 9.86923e-13 9.86923e-13 9.86923e-13 9.86923e-13 9.86923e-13 9.86923e-13 9.86923e-13 9.86923e-13 9.86923e-13 9.86923e-13 9.86923e-13
          9.86923e-13 9.86923e-13 9.86923e-13 9.86923e-13 9.86923e-13 9.86923e-13 9.86923e-13 9.86923e-13 9.86923e-13 9.86923e-13 9.86923e-13 9.86923e-13
          9.86923e-13 9.86923e-13 9.86923e-13 9.86923e-13 9.86923e-13 9.86923e-13 9.86923e-13 9.86923e-13 9.86923e-13 9.86923e-13 9.86923e-13 9.86923e-13
          9.86923e-13 9.86923e-13 9.86923e-13 9.86923e-13 9.86923e-13 9.86923e-13 9.86923e-13 9.86923e-13 9.86923e-13 9.86923e-13 9.86923e-13 9.86923e-13
          9.86923e-13 9.86923e-13 9.86923e-13 9.86923e-13 9.86923e-13 9.86923e-13 9.86923e-13 9.86923e-13 9.86923e-13 9.86923e-13 9.86923e-13 9.86923e-13
          9.86923e-13 9.86923e-13 9.86923e-13 9.86923e-13 9.86923e-13 9.86923e-13 9.86923e-13 9.86923e-13 9.86923e-13 9.86923e-13 9.86923e-13 9.86923e-13
        </DataArray>
        <DataArray type="Float32" Name="ReservoirDist" NumberOfComponents="1" format="ascii">
          45.25 45.25 45.25 45.25 45.25 45.25 45.25 45.25 45.25 45.25 45.25 45.25
          45.25 45.25 45.25 45.25 45.25 45.25 45.25 45.25 45.25 45.25 45.25 45.25
          45.25 45.25 45.25 45.25 45.25 45.25 45.25 45.25 45.25 45.25 45.25 45.25
          45.25 45.25 45.25 45.25 45.25 45.25 45.25 45.25 45.25 45.25 45.25 45.25
          45.25 45.25 45.25 45.25 45.25 45.25 45.25 45.25 45.25 45.25 45.25 45.25
          45.25 45.25 45.25 45.25 45.25 45.25 45.25 45.25 45.25 45.25 45.25 45.25
          45.25 45.25 45.25 45.25 45.25 45.25 45.25 45.25 45.25 45.25 45.25 45.25
          45.25 45.25 45.25 45.25 45.25 45.25 45.25 45.25 45.25 45.25 45.25 45.25
          45.25 45.25 45.25 45.25 45.25 45.25 45.25 45.25 45.25 45.25 45.25 45.25
          45.25 45.25 45.25 45.25 45.25 45.25 45.25 45.25 45.25 45.25 45.25 45.25
          45.25 45.25 45.25 45.25 45.25 45.25 45.25 45.25 45.25 45.25 45.25 45.25
          45.25 45.25 45.25 45.25 45.25 45.25 45.25 45.25 45.25 45.25 45.25 45.25
          45.25 45.25 45.25 45.25 45.25 45.25 45.25 45.25 45.25 45.25 45.25 45.25
        </DataArray>
        <DataArray type="Float32" Name="ReservoirCStres" NumberOfComponents="1" format="ascii">
          5.55e+06 5.55e+06 5.55e+06 5.55e+06 5.55e+06 5.55e+06 5.55e+06 5.55e+06 5.55e+06 5.55e+06 5.55e+06 5.55e+06
          5.55e+06 5.55e+06 5.55e+06 5.55e+06 5.55e+06 5.55e+06 5.55e+06 5.55e+06 5.55e+06 5.55e+06 5.55e+06 5.55e+06
          5.55e+06 5.55e+06 5.55e+06 5.55e+06 5.55e+06 5.55e+06 5.55e+06 5.55e+06 5.55e+06 5.55e+06 5.55e+06 5.55e+06
          5.55e+06 5.55e+06 5.55e+06 5.55e+06 5.55e+06 5.55e+06 5.55e+06 5.55e+06 5.55e+06 5.55e+06 5.55e+06 5.55e+06
          5.55e+06 5.55e+06 5.55e+06 5.55e+06 5.55e+06 5.55e+06 5.55e+06 5.55e+06 5.55e+06 5.55e+06 5.55e+06 5.55e+06
          5.55e+06 5.55e+06 5.55e+06 5.55e+06 5.55e+06 5.55e+06 5.55e+06 5.55e+06 5.55e+06 5.55e+06 5.55e+06 5.55e+06
          5.55e+06 5.55e+06 5.55e+06 5.55e+06 5.55e+06 5.55e+06 5.55e+06 5.55e+06 5.55e+06 5.55e+06 5.55e+06 5.55e+06
          5.55e+06 5.55e+06 5.55e+06 5.55e+06 5.55e+06 5.55e+06 5.55e+06 5.55e+06 5.55e+06 5.55e+06 5.55e+06 5.55e+06
          5.55e+06 5.55e+06 5.55e+06 5.55e+06 5.55e+06 5.55e+06 5.55e+06 5.55e+06 5.55e+06 5.55e+06 5.55e+06 5.55e+06
          5.55e+06 5.55e+06 5.55e+06 5.55e+06 5.55e+06 5.55e+06 5.55e+06 5.55e+06 5.55e+06 5.55e+06 5.55e+06 5.55e+06
          5.55e+06 5.55e+06 5.55e+06 5.55e+06 5.55e+06 5.55e+06 5.55e+06 5.55e+06 5.55e+06 5.55e+06 5.55e+06 5.55e+06
          5.55e+06 5.55e+06 5.55e+06 5.55e+06 5.55e+06 5.55e+06 5.55e+06 5.55e+06 5.55e+06 5.55e+06 5.55e+06 5.55e+06
          5.55e+06 5.55e+06 5.55e+06 5.55e+06 5.55e+06 5.55e+06 5.55e+06 5.55e+06 5.55e+06 5.55e+06 5.55e+06 5.55e+06
        </DataArray>
        <DataArray type="Float32" Name="FracturePressure" NumberOfComponents="1" format="ascii">
          2.20795e+07 2.20795e+07 2.20795e+07 2.20795e+07 2.20795e+07 2.20795e+07 2.20795e+07 2.20795e+07 2.20795e+07 2.20795e+07 2.20795e+07 2.20795e+07
          2.20795e+07 2.20795e+07 2.20795e+07 2.20795e+07 2.20795e+07 2.20795e+07 2.20795e+07 2.20795e+07 2.20795e+07 2.20795e+07 2.20795e+07 2.20795e+07
          2.20795e+07 2.20795e+07 2.20795e+07 2.20795e+07 2.20795e+07 2.20795e+07 2.20795e+07 2.20795e+07 2.20795e+07 2.20795e+07 2.20795e+07 2.20795e+07
          2.20795e+07 2.20795e+07 2.20795e+07 2.20795e+07 2.20795e+07 2.20795e+07 2.20795e+07 2.20795e+07 2.20795e+07 2.20795e+07 2.20795e+07 2.20795e+07
          2.20795e+07 2.20795e+07 2.20795e+07 2.20795e+07 2.20795e+07 2.20795e+07 2.20795e+07 2.20795e+07 2.20795e+07 2.20795e+07 2.20795e+07 2.20795e+07
          2.20795e+07 2.20795e+07 2.20795e+07 2.20795e+07 2.20795e+07 2.20795e+07 2.20795e+07 2.20795e+07 2.20795e+07 2.20795e+07 2.20795e+07 2.20795e+07
          2.20795e+07 2.20795e+07 2.20795e+07 2.20795e+07 2.20795e+07 2.20795e+07 2.20795e+07 2.20795e+07 2.20795e+07 2.20795e+07 2.20795e+07 2.20795e+07
          2.20795e+07 2.20795e+07 2.20795e+07 2.20795e+07 2.20795e+07 2.20795e+07 2.20795e+07 2.20795e+07 2.20795e+07 2.20795e+07 2.20795e+07 2.20795e+07
          2.20795e+07 2.20795e+07 2.20795e+07 2.20795e+07 2.20795e+07 2.20795e+07 2.20795e+07 2.20795e+07 2.20795e+07 2.20795e+07 2.20795e+07 2.20795e+07
          2.20795e+07 2.20795e+07 2.20795e+07 2.20795e+07 2.20795e+07 2.20795e+07 2.20795e+07 2.20795e+07 2.20795e+07 2.20795e+07 2.20795e+07 2.20795e+07
          2.20795e+07 2.20795e+07 2.20795e+07 2.20795e+07 2.20795e+07 2.20795e+07 2.20795e+07 2.20795e+07 2.20795e+07 2.20795e+07 2.20795e+07 2.20795e+07
          2.20795e+07 2.20795e+07 2.20795e+07 2.20795e+07 2.20795e+07 2.20795e+07 2.20795e+07 2.20795e+07 2.20795e+07 2.20795e+07 2.20795e+07 2.20795e+07
          2.20795e+07 2.20795e+07 2.20795e+07 2.20795e+07 2.20795e+07 2.20795e+07 2.20795e+07 2.20795e+07 2.20795e+07 2.20795e+07 2.20795e+07 2.20795e+07
        </DataArray>
        <DataArray type="Float32" Name="FractureHead" NumberOfComponents="1" format="ascii">
          1.32444e+07 1.32444e+07 1.32493e+07 1.32493e+07 1.32543e+07 1.32444e+07 1.32444e+07 1.32493e+07 1.32493e+07 1.32543e+07 1.32543e+07 1.32592e+07
          1.32592e+07 1.32641e+07 1.32641e+07 1.3269e+07 1.32444e+07 1.32444e+07 1.32493e+07 1.32493e+07 1.32739e+07 1.32788e+07 1.32788e+07 1.32837e+07
          1.32493e+07 1.32493e+07 1.32543e+07 1.32543e+07 1.32837e+07 1.32886e+07 1.32886e+07 1.32935e+07 1.32543e+07 1.32592e+07 1.32592e+07 1.32739e+07
          1.32739e+07 1.32788e+07 1.32788e+07 1.32837e+07 1.32935e+07 1.32984e+07 1.32984e+07 1.32641e+07 1.32641e+07 1.32788e+07 1.32788e+07 1.32837e+07
          1.32837e+07 1.32886e+07 1.32886e+07 1.32935e+07 1.33033e+07 1.33082e+07 1.3269e+07 1.32739e+07 1.32837e+07 1.32886e+07 1.32886e+07 1.32935e+07
          1.32935e+07 1.32984e+07 1.32984e+07 1.33131e+07 1.33131e+07 1.32788e+07 1.32788e+07 1.32837e+07 1.32935e+07 1.32984e+07 1.32984e+07 1.33033e+07
          1.33033e+07 1.3318e+07 1.3318e+07 1.33229e+07 1.32837e+07 1.32886e+07 1.32886e+07 1.32935e+07 1.33229e+07 1.33229e+07 1.33278e+07 1.33278e+07
          1.32935e+07 1.32984e+07 1.32984e+07 1.33033e+07 1.33278e+07 1.33278e+07 1.33327e+07 1.33327e+07 1.33082e+07 1.33131e+07 1.33131e+07 1.3318e+07
          1.3318e+07 1.33229e+07 1.33229e+07 1.33278e+07 1.33278e+07 1.33327e+07 1.33327e+07 1.33229e+07 1.33278e+07 1.33278e+07 1.33327e+07 1.33327e+07
          1.32575e+07 1.32608e+07 1.32608e+07 1.32575e+07 1.32673e+07 1.32706e+07 1.32706e+07 1.32673e+07 1.3282e+07 1.32755e+07 1.32673e+07 1.32706e+07
          1.32706e+07 1.32673e+07 1.32853e+07 1.32918e+07 1.33017e+07 1.32951e+07 1.32755e+07 1.3282e+07 1.32918e+07 1.32853e+07 1.33066e+07 1.33098e+07
          1.33098e+07 1.33066e+07 1.32951e+07 1.33017e+07 1.33066e+07 1.33098e+07 1.33098e+07 1.33066e+07 1.33164e+07 1.33196e+07 1.33196e+07 1.33164e+07
          1.32412e+07 1.32412e+07 1.3336e+07 1.3336e+07 1.32575e+07 1.33049e+07 1.32722e+07 1.33196e+07 1.32575e+07 1.32722e+07 1.33049e+07 1.33196e+07
        </DataArray>
        <DataArray type="Float32" Name="ReservoirPressure" NumberOfComponents="1" format="ascii">
          2.20795e+07 2.20795e+07 2.20795e+07 2.20795e+07 2.20795e+07 2.20795e+07 2.20795e+07 2.20795e+07 2.20795e+07 2.20795e+07 2.20795e+07 2.20795e+07
          2.20795e+07 2.20795e+07 2.20795e+07 2.20795e+07 2.20795e+07 2.20795e+07 2.20795e+07 2.20795e+07 2.20795e+07 2.20795e+07 2.20795e+07 2.20795e+07
          2.20795e+07 2.20795e+07 2.20795e+07 2.20795e+07 2.20795e+07 2.20795e+07 2.20795e+07 2.20795e+07 2.20795e+07 2.20795e+07 2.20795e+07 2.20795e+07
          2.20795e+07 2.20795e+07 2.20795e+07 2.20795e+07 2.20795e+07 2.20795e+07 2.20795e+07 2.20795e+07 2.20795e+07 2.20795e+07 2.20795e+07 2.20795e+07
          2.20795e+07 2.20795e+07 2.20795e+07 2.20795e+07 2.20795e+07 2.20795e+07 2.20795e+07 2.20795e+07 2.20795e+07 2.20795e+07 2.20795e+07 2.20795e+07
          2.20795e+07 2.20795e+07 2.20795e+07 2.20795e+07 2.20795e+07 2.20795e+07 2.20795e+07 2.20795e+07 2.20795e+07 2.20795e+07 2.20795e+07 2.20795e+07
          2.20795e+07 2.20795e+07 2.20795e+07 2.20795e+07 2.20795e+07 2.20795e+07 2.20795e+07 2.20795e+07 2.20795e+07 2.20795e+07 2.20795e+07 2.20795e+07
          2.20795e+07 2.20795e+07 2.20795e+07 2.20795e+07 2.20795e+07 2.20795e+07 2.20795e+07 2.20795e+07 2.20795e+07 2.20795e+07 2.20795e+07 2.20795e+07
          2.20795e+07 2.20795e+07 2.20795e+07 2.20795e+07 2.20795e+07 2.20795e+07 2.20795e+07 2.20795e+07 2.20795e+07 2.20795e+07 2.20795e+07 2.20795e+07
          2.20795e+07 2.20795e+07 2.20795e+07 2.20795e+07 2.20795e+07 2.20795e+07 2.20795e+07 2.20795e+07 2.20795e+07 2.20795e+07 2.20795e+07 2.20795e+07
          2.20795e+07 2.20795e+07 2.20795e+07 2.20795e+07 2.20795e+07 2.20795e+07 2.20795e+07 2.20795e+07 2.20795e+07 2.20795e+07 2.20795e+07 2.20795e+07
          2.20795e+07 2.20795e+07 2.20795e+07 2.20795e+07 2.20795e+07 2.20795e+07 2.20795e+07 2.20795e+07 2.20795e+07 2.20795e+07 2.20795e+07 2.20795e+07
          2.20795e+07 2.20795e+07 2.20795e+07 2.20795e+07 2.20795e+07 2.20795e+07 2.20795e+07 2.20795e+07 2.20795e+07 2.20795e+07 2.20795e+07 2.20795e+07
        </DataArray>
        <DataArray type="Float32" Name="LeakofDP" NumberOfComponents="1" format="ascii">
          -44129.8 -44129.8 -39226.5 -39226.5 -34323.2 -44129.8 -44129.8 -39226.5 -39226.5 -34323.2 -34323.2 -29419.9
          -29419.9 -24516.6 -24516.6 -19613.2 -44129.8 -44129.8 -39226.5 -39226.5 -14709.9 -9806.62 -9806.62 -4903.31
          -39226.5 -39226.5 -34323.2 -34323.2 -4903.31 0 0 4903.31 -34323.2 -29419.9 -29419.9 -14709.9
          -14709.9 -9806.62 -9806.62 -4903.31 4903.31 9806.62 9806.62 -24516.6 -24516.6 -9806.62 -9806.62 -4903.31
          -4903.31 0 0 4903.31 14709.9 19613.2 -19613.2 -14709.9 -4903.31 0 0 4903.31
          4903.31 9806.62 9806.62 24516.6 24516.6 -9806.62 -9806.62 -4903.31 4903.31 9806.62 9806.62 14709.9
          14709.9 29419.9 29419.9 34323.2 -4903.31 0 0 4903.31 34323.2 34323.2 39226.5 39226.5
          4903.31 9806.62 9806.62 14709.9 39226.5 39226.5 44129.8 44129.8 19613.2 24516.6 24516.6 29419.9
          29419.9 34323.2 34323.2 39226.5 39226.5 44129.8 44129.8 34323.2 39226.5 39226.5 44129.8 44129.8
          -31054.3 -27785.4 -27785.4 -31054.3 -21247.7 -17978.8 -17978.8 -21247.7 -6537.75 -13075.5 -21247.7 -17978.8
          -17978.8 -21247.7 -3268.87 3268.87 13075.5 6537.75 -13075.5 -6537.75 3268.87 -3268.87 17978.8 21247.7
          21247.7 17978.8 6537.75 13075.5 17978.8 21247.7 21247.7 17978.8 27785.4 31054.3 31054.3 27785.4
          -47398.7 -47398.7 47398.7 47398.7 -31054.3 16344.4 -16344.4 31054.3 -31054.3 -16344.4 16344.4 31054.3
        </DataArray>
        <DataArray type="Float32" Name="FilterCakeThickness" NumberOfComponents="1" format="ascii">
          0 0 0 0 0 0 0 0 0 0 0 0
          0 0 0 0 0 0 0 0 0 0 0 0
          0 0 0 0 0 0 0 0 0 0 0 0
          0 0 0 0 0 0 0 0 0 0 0 0
          0 0 0 0 0 0 0 0 0 0 0 0
          0 0 0 0 0 0 0 0 0 0 0 0
          0 0 0 0 0 0 0 0 0 0 0 0
          0 0 0 0 0 0 0 0 0 0 0 0
          0 0 0 0 0 0 0 0 0 0 0 0
          0 0 0 0 0 0 0 0 0 0 0 0
          0 0 0 0 0 0 0 0 0 0 0 0
          0 0 0 0 0 0 0 0 0 0 0 0
          0 0 0 0 0 0 0 0 0 0 0 0
        </DataArray>
        <DataArray type="Float32" Name="ReservoirTraction" NumberOfComponents="1" format="ascii">
          3.55476e+07 3.55476e+07 3.55476e+07 3.55476e+07 3.55476e+07 3.55476e+07 3.55476e+07 3.55476e+07 3.55476e+07 3.55476e+07 3.55476e+07 3.55476e+07
          3.55476e+07 3.55476e+07 3.55476e+07 3.55476e+07 3.55476e+07 3.55476e+07 3.55476e+07 3.55476e+07 3.55476e+07 3.55476e+07 3.55476e+07 3.55476e+07
          3.55476e+07 3.55476e+07 3.55476e+07 3.55476e+07 3.55476e+07 3.55476e+07 3.55476e+07 3.55476e+07 3.55476e+07 3.55476e+07 3.55476e+07 3.55476e+07
          3.55476e+07 3.55476e+07 3.55476e+07 3.55476e+07 3.55476e+07 3.55476e+07 3.55476e+07 3.55476e+07 3.55476e+07 3.55476e+07 3.55476e+07 3.55476e+07
          3.55476e+07 3.55476e+07 3.55476e+07 3.55476e+07 3.55476e+07 3.55476e+07 3.55476e+07 3.55476e+07 3.55476e+07 3.55476e+07 3.55476e+07 3.55476e+07
          3.55476e+07 3.55476e+07 3.55476e+07 3.55476e+07 3.55476e+07 3.55476e+07 3.55476e+07 3.55476e+07 3.55476e+07 3.55476e+07 3.55476e+07 3.55476e+07
          3.55476e+07 3.55476e+07 3.55476e+07 3.55476e+07 3.55476e+07 3.55476e+07 3.55476e+07 3.55476e+07 3.55476e+07 3.55476e+07 3.55476e+07 3.55476e+07
          3.55476e+07 3.55476e+07 3.55476e+07 3.55476e+07 3.55476e+07 3.55476e+07 3.55476e+07 3.55476e+07 3.55476e+07 3.55476e+07 3.55476e+07 3.55476e+07
          3.55476e+07 3.55476e+07 3.55476e+07 3.55476e+07 3.55476e+07 3.55476e+07 3.55476e+07 3.55476e+07 3.55476e+07 3.55476e+07 3.55476e+07 3.55476e+07
          3.55476e+07 3.55476e+07 3.55476e+07 3.55476e+07 3.55476e+07 3.55476e+07 3.55476e+07 3.55476e+07 3.55476e+07 3.55476e+07 3.55476e+07 3.55476e+07
          3.55476e+07 3.55476e+07 3.55476e+07 3.55476e+07 3.55476e+07 3.55476e+07 3.55476e+07 3.55476e+07 3.55476e+07 3.55476e+07 3.55476e+07 3.55476e+07
          3.55476e+07 3.55476e+07 3.55476e+07 3.55476e+07 3.55476e+07 3.55476e+07 3.55476e+07 3.55476e+07 3.55476e+07 3.55476e+07 3.55476e+07 3.55476e+07
          3.55476e+07 3.55476e+07 3.55476e+07 3.55476e+07 3.55476e+07 3.55476e+07 3.55476e+07 3.55476e+07 3.55476e+07 3.55476e+07 3.55476e+07 3.55476e+07
        </DataArray>
        <DataArray type="Float32" Name="FractureForce" NumberOfComponents="1" format="ascii">
          1.3468e+07 1.3468e+07 1.3468e+07 1.3468e+07 1.3468e+07 1.3468e+07 1.3468e+07 1.3468e+07 1.3468e+07 1.3468e+07 1.3468e+07 1.3468e+07
          1.3468e+07 1.3468e+07 1.3468e+07 1.3468e+07 1.3468e+07 1.3468e+07 1.3468e+07 1.3468e+07 1.3468e+07 1.3468e+07 1.3468e+07 1.3468e+07
          1.3468e+07 1.3468e+07 1.3468e+07 1.3468e+07 1.3468e+07 1.3468e+07 1.3468e+07 1.3468e+07 1.3468e+07 1.3468e+07 1.3468e+07 1.3468e+07
          1.3468e+07 1.3468e+07 1.3468e+07 1.3468e+07 1.3468e+07 1.3468e+07 1.3468e+07 1.3468e+07 1.3468e+07 1.3468e+07 1.3468e+07 1.3468e+07
          1.3468e+07 1.3468e+07 1.3468e+07 1.3468e+07 1.3468e+07 1.3468e+07 1.3468e+07 1.3468e+07 1.3468e+07 1.3468e+07 1.3468e+07 1.3468e+07
          1.3468e+07 1.3468e+07 1.3468e+07 1.3468e+07 1.3468e+07 1.3468e+07 1.3468e+07 1.3468e+07 1.3468e+07 1.3468e+07 1.3468e+07 1.3468e+07
          1.3468e+07 1.3468e+07 1.3468e+07 1.3468e+07 1.3468e+07 1.3468e+07 1.3468e+07 1.3468e+07 1.3468e+07 1.3468e+07 1.3468e+07 1.3468e+07
          1.3468e+07 1.3468e+07 1.3468e+07 1.3468e+07 1.3468e+07 1.3468e+07 1.3468e+07 1.3468e+07 1.3468e+07 1.3468e+07 1.3468e+07 1.3468e+07
          1.3468e+07 1.3468e+07 1.3468e+07 1.3468e+07 1.3468e+07 1.3468e+07 1.3468e+07 1.3468e+07 1.3468e+07 1.3468e+07 1.3468e+07 1.3468e+07
          1.3468e+07 1.3468e+07 1.3468e+07 1.3468e+07 1.3468e+07 1.3468e+07 1.3468e+07 1.3468e+07 1.3468e+07 1.3468e+07 1.3468e+07 1.3468e+07
          1.3468e+07 1.3468e+07 1.3468e+07 1.3468e+07 1.3468e+07 1.3468e+07 1.3468e+07 1.3468e+07 1.3468e+07 1.3468e+07 1.3468e+07 1.3468e+07
          1.3468e+07 1.3468e+07 1.3468e+07 1.3468e+07 1.3468e+07 1.3468e+07 1.3468e+07 1.3468e+07 1.3468e+07 1.3468e+07 1.3468e+07 1.3468e+07
          1.3468e+07 1.3468e+07 1.3468e+07 1.3468e+07 1.3468e+07 1.3468e+07 1.3468e+07 1.3468e+07 1.3468e+07 1.3468e+07 1.3468e+07 1.3468e+07
        </DataArray>
        <DataArray type="Float32" Name="ReservoirMobility" NumberOfComponents="1" format="ascii">
          2523.62 2523.62 2523.62 2523.62 2523.62 2523.62 2523.62 2523.62 2523.62 2523.62 2523.62 2523.62
          2523.62 2523.62 2523.62 2523.62 2523.62 2523.62 2523.62 2523.62 2523.62 2523.62 2523.62 2523.62
          2523.62 2523.62 2523.62 2523.62 2523.62 2523.62 2523.62 2523.62 2523.62 2523.62 2523.62 2523.62
          2523.62 2523.62 2523.62 2523.62 2523.62 2523.62 2523.62 2523.62 2523.62 2523.62 2523.62 2523.62
          2523.62 2523.62 2523.62 2523.62 2523.62 2523.62 2523.62 2523.62 2523.62 2523.62 2523.62 2523.62
          2523.62 2523.62 2523.62 2523.62 2523.62 2523.62 2523.62 2523.62 2523.62 2523.62 2523.62 2523.62
          2523.62 2523.62 2523.62 2523.62 2523.62 2523.62 2523.62 2523.62 2523.62 2523.62 2523.62 2523.62
          2523.62 2523.62 2523.62 2523.62 2523.62 2523.62 2523.62 2523.62 2523.62 2523.62 2523.62 2523.62
          2523.62 2523.62 2523.62 2523.62 2523.62 2523.62 2523.62 2523.62 2523.62 2523.62 2523.62 2523.62
          2523.62 2523.62 2523.62 2523.62 2523.62 2523.62 2523.62 2523.62 2523.62 2523.62 2523.62 2523.62
          2523.62 2523.62 2523.62 2523.62 2523.62 2523.62 2523.62 2523.62 2523.62 2523.62 2523.62 2523.62
          2523.62 2523.62 2523.62 2523.62 2523.62 2523.62 2523.62 2523.62 2523.62 2523.62 2523.62 2523.62
          2523.62 2523.62 2523.62 2523.62 2523.62 2523.62 2523.62 2523.62 2523.62 2523.62 2523.62 2523.62
        </DataArray>
        <DataArray type="Float32" Name="WellIndex" NumberOfComponents="1" format="ascii">
          0 0 0 0 0 0 0 0 0 0 0 0
          0 0 0 0 0 0 0 0 0 0 0 0
          0 0 0 0 0 0 0 0 0 0 0 0
          0 0 0 0 0 0 0 0 0 0 0 0
          0 0 0 0 0 0 0 0 0 0 0 0
          0 0 0 0 0 0 0 0 0 0 0 0
          0 0 0 0 0 0 0 0 0 0 0 0
          0 0 0 0 0 0 0 0 0 0 0 0
          0 0 0 0 0 0 0 0 0 0 0 0
          0 0 0 0 0 0 0 0 0 0 0 0
          0 0 0 0 0 0 0 0 0 0 0 0
          0 0 0 0 0 0 0 0 0 0 0 0
          0 0 0 0 0 0 0 0 0 0 0 0
        </DataArray>
        <DataArray type="Float32" Name="FractureWidth" NumberOfComponents="1" format="ascii">
          0.0001 0.0001 0.0001 0.0001 0.0001 0.0001 0.0001 0.0001 0.0001 0.0001 0.0001 0.0001
          0.0001 0.0001 0.0001 0.0001 0.0001 0.0001 0.0001 0.0001 0.0001 0.0001 0.0001 0.0001
          0.0001 0.0001 0.0001 0.0001 0.0001 0.0001 0.0001 0.0001 0.0001 0.0001 0.0001 0.0001
          0.0001 0.0001 0.0001 0.0001 0.0001 0.0001 0.0001 0.0001 0.0001 0.0001 0.0001 0.0001
          0.0001 0.0001 0.0001 0.0001 0.0001 0.0001 0.0001 0.0001 0.0001 0.0001 0.0001 0.0001
          0.0001 0.0001 0.0001 0.0001 0.0001 0.0001 0.0001 0.0001 0.0001 0.0001 0.0001 0.0001
          0.0001 0.0001 0.0001 0.0001 0.0001 0.0001 0.0001 0.0001 0.0001 0.0001 0.0001 0.0001
          0.0001 0.0001 0.0001 0.0001 0.0001 0.0001 0.0001 0.0001 0.0001 0.0001 0.0001 0.0001
          0.0001 0.0001 0.0001 0.0001 0.0001 0.0001 0.0001 0.0001 0.0001 0.0001 0.0001 0.0001
          0.0001 0.0001 0.0001 0.0001 0.0001 0.0001 0.0001 0.0001 0.0001 0.0001 0.0001 0.0001
          0.0001 0.0001 0.0001 0.0001 0.0001 0.0001 0.0001 0.0001 0.0001 0.0001 0.0001 0.0001
          0.0001 0.0001 0.0001 0.0001 0.0001 0.0001 0.0001 0.0001 0.0001 0.0001 0.0001 0.0001
          0.0001 0.0001 0.0001 0.0001 0.0001 0.0001 0.0001 0.0001 0.0001 0.0001 0.0001 0.0001
        </DataArray>
        <DataArray type="Float32" Name="FlowWidth" NumberOfComponents="1" format="ascii">
          0.0001 0.0001 0.0001 0.0001 0.0001 0.0001 0.0001 0.0001 0.0001 0.0001 0.0001 0.0001
          0.0001 0.0001 0.0001 0.0001 0.0001 0.0001 0.0001 0.0001 0.0001 0.0001 0.0001 0.0001
          0.0001 0.0001 0.0001 0.0001 0.0001 0.0001 0.0001 0.0001 0.0001 0.0001 0.0001 0.0001
          0.0001 0.0001 0.0001 0.0001 0.0001 0.0001 0.0001 0.0001 0.0001 0.0001 0.0001 0.0001
          0.0001 0.0001 0.0001 0.0001 0.0001 0.0001 0.0001 0.0001 0.0001 0.0001 0.0001 0.0001
          0.0001 0.0001 0.0001 0.0001 0.0001 0.0001 0.0001 0.0001 0.0001 0.0001 0.0001 0.0001
          0.0001 0.0001 0.0001 0.0001 0.0001 0.0001 0.0001 0.0001 0.0001 0.0001 0.0001 0.0001
          0.0001 0.0001 0.0001 0.0001 0.0001 0.0001 0.0001 0.0001 0.0001 0.0001 0.0001 0.0001
          0.0001 0.0001 0.0001 0.0001 0.0001 0.0001 0.0001 0.0001 0.0001 0.0001 0.0001 0.0001
          0.0001 0.0001 0.0001 0.0001 0.0001 0.0001 0.0001 0.0001 0.0001 0.0001 0.0001 0.0001
          0.0001 0.0001 0.0001 0.0001 0.0001 0.0001 0.0001 0.0001 0.0001 0.0001 0.0001 0.0001
          0.0001 0.0001 0.0001 0.0001 0.0001 0.0001 0.0001 0.0001 0.0001 0.0001 0.0001 0.0001
          0.0001 0.0001 0.0001 0.0001 0.0001 0.0001 0.0001 0.0001 0.0001 0.0001 0.0001 0.0001
        </DataArray>
        <DataArray type="Float32" Name="stressIntensityK1" NumberOfComponents="1" format="ascii">
          nan 717450 nan 717450 nan nan nan nan nan nan nan nan
          nan nan nan nan 717450 nan nan nan nan nan nan 717450
          717450 nan nan nan nan nan nan 717450 nan nan nan nan
          nan nan nan nan nan nan nan nan nan nan nan nan
          nan nan nan nan nan nan nan nan nan nan nan nan
          nan nan nan nan nan nan nan nan nan nan nan nan
          nan nan nan nan 717450 nan nan nan nan nan nan 717450
          717450 nan nan nan nan nan nan 717450 nan nan nan nan
          nan nan nan nan nan nan nan nan 717450 nan 717450 nan
          nan nan nan nan nan nan nan nan nan nan nan nan
          nan nan nan nan nan nan nan nan nan nan nan nan
          nan nan nan nan nan nan nan nan nan nan nan nan
          944218 944218 944218 944218 944218 944218 944218 944218 944218 944218 944218 944218
        </DataArray>
      </CellData>
      <Points>
        <DataArray type="Float32" Name="Coordinates" NumberOfComponents="3" format="ascii">
          994.634 995.5 2214.5 993.768 995.5 2215 993.768 995.5 2214 992.902 995.5 2214.5
          992.902 995.5 2213.5 992.036 995.5 2214 992.036 995.5 2213 996.366 995.5 2214.5
          995.5 995.5 2215 995.5 995.5 2214 994.634 995.5 2213.5 993.768 995.5 2213
          992.902 995.5 2212.5 992.036 995.5 2212 991.17 995.5 2212.5 991.17 995.5 2211.5
          998.098 995.5 2214.5 997.232 995.5 2215 997.232 995.5 2214 996.366 995.5 2213.5
          992.036 995.5 2211 991.17 995.5 2210.5 990.304 995.5 2211 990.304 995.5 2210
          998.964 995.5 2214 998.098 995.5 2213.5 997.232 995.5 2213 992.036 995.5 2210
          991.17 995.5 2209.5 990.304 995.5 2209 998.964 995.5 2213 998.098 995.5 2212.5
          996.366 995.5 2211.5 995.5 995.5 2212 995.5 995.5 2211 994.634 995.5 2211.5
          994.634 995.5 2210.5 993.768 995.5 2211 993.768 995.5 2210 992.036 995.5 2209
          991.17 995.5 2208.5 999.83 995.5 2212.5 998.964 995.5 2212 997.232 995.5 2211
          996.366 995.5 2210.5 995.5 995.5 2210 994.634 995.5 2209.5 993.768 995.5 2209
          992.036 995.5 2208 991.17 995.5 2207.5 999.83 995.5 2211.5 998.964 995.5 2211
          997.232 995.5 2210 996.366 995.5 2209.5 995.5 995.5 2209 994.634 995.5 2208.5
          992.902 995.5 2207.5 992.036 995.5 2207 1000.7 995.5 2211 999.83 995.5 2210.5
          998.964 995.5 2210 997.232 995.5 2209 996.366 995.5 2208.5 995.5 995.5 2208
          993.768 995.5 2207 992.902 995.5 2206.5 992.036 995.5 2206 1000.7 995.5 2210
          999.83 995.5 2209.5 998.964 995.5 2209 994.634 995.5 2206.5 993.768 995.5 2206
          992.902 995.5 2205.5 1000.7 995.5 2209 999.83 995.5 2208.5 998.964 995.5 2208
          995.5 995.5 2206 994.634 995.5 2205.5 993.768 995.5 2205 999.83 995.5 2207.5
          998.964 995.5 2207 998.098 995.5 2207.5 998.098 995.5 2206.5 997.232 995.5 2207
          997.232 995.5 2206 996.366 995.5 2206.5 996.366 995.5 2205.5 995.5 995.5 2205
          998.964 995.5 2206 998.098 995.5 2205.5 997.232 995.5 2205
        </DataArray>
      </Points>
      <Cells>
        <DataArray type="Int32" Name="connectivity" NumberOfComponents="1" format="ascii">
          0 1 2 1 2 3 2 3 4 3 4 5
          4 5 6 7 8 9 8 9 0 9 0 10
          0 10 2 10 2 11 2 11 4 11 4 12
          4 12 6 12 6 13 6 13 14 13 14 15
          16 17 18 17 18 7 18 7 19 7 19 9
          13 20 15 20 15 21 15 21 22 21 22 23
          24 16 25 16 25 18 25 18 26 18 26 19
          20 27 21 27 21 28 21 28 23 28 23 29
          24 30 25 30 25 31 25 31 26 32 33 34
          33 34 35 34 35 36 35 36 37 36 37 38
          27 39 28 39 28 40 28 40 29 41 30 42
          30 42 31 43 32 44 32 44 34 44 34 45
          34 45 36 45 36 46 36 46 38 46 38 47
          39 48 40 48 40 49 41 50 42 50 42 51
          43 52 44 52 44 53 44 53 45 53 45 54
          45 54 46 54 46 55 46 55 47 56 48 57
          48 57 49 58 50 59 50 59 51 59 51 60
          52 61 53 61 53 62 53 62 54 62 54 63
          54 63 55 64 56 65 56 65 57 65 57 66
          58 67 59 67 59 68 59 68 60 68 60 69
          70 64 71 64 71 65 71 65 72 65 72 66
          67 73 68 73 68 74 68 74 69 74 69 75
          76 70 77 70 77 71 77 71 78 71 78 72
          74 79 75 79 75 80 75 80 81 80 81 82
          81 82 83 82 83 84 83 84 85 84 85 86
          85 86 76 86 76 87 76 87 77 80 88 82
          88 82 89 82 89 84 89 84 90 84 90 86
          9 19 33 19 26 33 11 10 33 10 9 33
          33 35 11 35 37 11 13 12 37 12 11 37
          27 20 37 20 13 37 26 31 43 31 42 43
          43 32 26 32 33 26 37 38 27 38 47 27
          48 39 47 39 27 47 42 51 43 51 60 43
          61 52 60 52 43 60 47 55 64 55 63 64
          64 56 47 56 48 47 60 69 61 69 75 61
          75 81 61 81 83 61 63 62 83 62 61 83
          83 85 63 85 76 63 76 70 63 70 64 63
          0 1 8 7 8 17 77 87 78 86 90 87
          30 24 41 40 49 29 50 41 58 57 66 49
          6 14 5 15 22 14 74 73 79 80 79 88
        </DataArray>
        <DataArray type="Int32" Name="offsets" NumberOfComponents="1" format="ascii">
          3 6 9 12 15 18 21 24 27 30 33 36
          39 42 45 48 51 54 57 60 63 66 69 72
          75 78 81 84 87 90 93 96 99 102 105 108
          111 114 117 120 123 126 129 132 135 138 141 144
          147 150 153 156 159 162 165 168 171 174 177 180
          183 186 189 192 195 198 201 204 207 210 213 216
          219 222 225 228 231 234 237 240 243 246 249 252
          255 258 261 264 267 270 273 276 279 282 285 288
          291 294 297 300 303 306 309 312 315 318 321 324
          327 330 333 336 339 342 345 348 351 354 357 360
          363 366 369 372 375 378 381 384 387 390 393 396
          399 402 405 408 411 414 417 420 423 426 429 432
          435 438 441 444 447 450 453 456 459 462 465 468
        </DataArray>
        <DataArray type="UInt8" Name="types" NumberOfComponents="1" format="ascii">
          5 5 5 5 5 5 5 5 5 5 5 5
          5 5 5 5 5 5 5 5 5 5 5 5
          5 5 5 5 5 5 5 5 5 5 5 5
          5 5 5 5 5 5 5 5 5 5 5 5
          5 5 5 5 5 5 5 5 5 5 5 5
          5 5 5 5 5 5 5 5 5 5 5 5
          5 5 5 5 5 5 5 5 5 5 5 5
          5 5 5 5 5 5 5 5 5 5 5 5
          5 5 5 5 5 5 5 5 5 5 5 5
          5 5 5 5 5 5 5 5 5 5 5 5
          5 5 5 5 5 5 5 5 5 5 5 5
          5 5 5 5 5 5 5 5 5 5 5 5
          5 5 5 5 5 5 5 5 5 5 5 5
        </DataArray>
      </Cells>
    </Piece>
  </UnstructuredGrid>
</VTKFile>
