<?xml version="1.0"?>
<VTKFile type="UnstructuredGrid" version="0.1" byte_order="LittleEndian">
  <UnstructuredGrid>
    <Piece NumberOfCells="400" NumberOfPoints="235">
      <CellData Scalars="ReservoirCell">
        <DataArray type="Float32" Name="ReservoirCell" NumberOfComponents="1" format="ascii">
          1996 1996 1996 1995 1995 1996 1996 1996 1996 1996 1996 1996
          1995 1996 1996 1996 1996 1996 1996 1996 1996 1996 1996 1875
          1996 1996 1996 1996 1996 1996 1996 1996 1996 1996 1875 1875
          1875 1875 1875 1996 1996 1996 1996 1996 1996 1996 1996 1996
          1996 1875 1875 1875 1875 1875 1875 1875 1875 1875 1996 1996
          1996 1996 1996 1996 1996 1996 1996 1996 1875 1875 1875 1875
          1875 1875 1875 1875 1875 1875 1754 1754 1754 1996 1996 1996
          1996 1996 1996 1996 1996 1996 1996 1875 1875 1875 1875 1875
          1875 1875 1875 1875 1875 1754 1754 1754 1754 1754 1754 1754
          1996 1996 1996 1996 1996 1996 1996 1996 1996 1996 1875 1875
          1875 1875 1875 1875 1875 1875 1875 1875 1754 1754 1754 1754
          1754 1754 1754 1754 1754 1754 1996 1996 1996 1996 1996 1996
          1996 1996 1996 1996 1875 1875 1875 1875 1875 1875 1875 1875
          1875 1875 1754 1754 1754 1754 1754 1754 1754 1754 1754 1754
          1996 1996 1996 1996 1996 1996 1996 1996 1996 1996 1875 1875
          1875 1875 1875 1875 1875 1875 1875 1875 1754 1754 1754 1754
          1754 1754 1754 1754 1754 1754 1996 1996 1996 1996 1996 1996
          1996 1996 1996 1996 1875 1875 1875 1875 1875 1875 1875 1875
          1875 1875 1754 1754 1754 1754 1754 1754 1754 1754 1754 1754
          1996 1996 1996 1996 1996 1996 1996 1996 1996 1996 1875 1875
          1875 1875 1875 1875 1875 1875 1875 1875 1754 1754 1754 1754
          1754 1754 1754 1754 1754 1754 1996 1996 1996 1996 1996 1996
          1996 1996 1996 1996 1875 1875 1875 1875 1875 1875 1875 1875
          1875 1875 1754 1754 1754 1754 1754 1754 1754 1754 1754 1754
          1997 1996 1996 1996 1996 1996 1996 1996 1875 1875 1875 1875
          1875 1875 1875 1875 1875 1875 1754 1754 1754 1754 1754 1754
          1754 1754 1754 1754 1633 1633 1997 1997 1996 1996 1996 1875
          1875 1875 1875 1875 1875 1875 1875 1875 1875 1754 1754 1754
          1754 1754 1754 1754 1754 1754 1754 1633 1633 1875 1875 1875
          1875 1875 1875 1875 1875 1875 1754 1754 1754 1754 1754 1754
          1754 1754 1754 1754 1875 1875 1875 1875 1875 1754 1754 1754
          1754 1754 1754 1754 1754 1754 1754 1875 1754 1754 1754 1754
          1754 1754 1754 1754 1754 1754 1754 1754 1754 1754 1754 1754
          1754 1754 1754 1754
        </DataArray>
        <DataArray type="Float32" Name="ReservoirPerm" NumberOfComponents="1" format="ascii">
          9.86923e-13 9.86923e-13 9.86923e-13 9.86923e-13 9.86923e-13 9.86923e-13 9.86923e-13 9.86923e-13 9.86923e-13 9.86923e-13 9.86923e-13 9.86923e-13
          9.86923e-13 9.86923e-13 9.86923e-13 9.86923e-13 9.86923e-13 9.86923e-13 9.86923e-13 9.86923e-13 9.86923e-13 9.86923e-13 9.86923e-13 9.86923e-13
          9.86923e-13 9.86923e-13 9.86923e-13 9.86923e-13 9.86923e-13 9.86923e-13 9.86923e-13 9.86923e-13 9.86923e-13 9.86923e-13 9.86923e-13 9.86923e-13
          9.86923e-13 9.86923e-13 9.86923e-13 9.86923e-13 9.86923e-13 9.86923e-13 9.86923e-13 9.86923e-13 9.86923e-13 9.86923e-13 9.86923e-13 9.86923e-13
          9.86923e-13 9.86923e-13 9.86923e-13 9.86923e-13 9.86923e-13 9.86923e-13 9.86923e-13 9.86923e-13 9.86923e-13 9.86923e-13 9.86923e-13 9.86923e-13
          9.86923e-13 9.86923e-13 9.86923e-13 9.86923e-13 9.86923e-13 9.86923e-13 9.86923e-13 9.86923e-13 9.86923e-13 9.86923e-13 9.86923e-13 9.86923e-13
          9.86923e-13 9.86923e-13 9.86923e-13 9.86923e-13 9.86923e-13 9.86923e-13 9.86923e-13 9.86923e-13 9.86923e-13 9.86923e-13 9.86923e-13 9.86923e-13
          9.86923e-13 9.86923e-13 9.86923e-13 9.86923e-13 9.86923e-13 9.86923e-13 9.86923e-13 9.86923e-13 9.86923e-13 9.86923e-13 9.86923e-13 9.86923e-13
          9.86923e-13 9.86923e-13 9.86923e-13 9.86923e-13 9.86923e-13 9.86923e-13 9.86923e-13 9.86923e-13 9.86923e-13 9.86923e-13 9.86923e-13 9.86923e-13
          9.86923e-13 9.86923e-13 9.86923e-13 9.86923e-13 9.86923e-13 9.86923e-13 9.86923e-13 9.86923e-13 9.86923e-13 9.86923e-13 9.86923e-13 9.86923e-13
          9.86923e-13 9.86923e-13 9.86923e-13 9.86923e-13 9.86923e-13 9.86923e-13 9.86923e-13 9.86923e-13 9.86923e-13 9.86923e-13 9.86923e-13 9.86923e-13
          9.86923e-13 9.86923e-13 9.86923e-13 9.86923e-13 9.86923e-13 9.86923e-13 9.86923e-13 9.86923e-13 9.86923e-13 9.86923e-13 9.86923e-13 9.86923e-13
          9.86923e-13 9.86923e-13 9.86923e-13 9.86923e-13 9.86923e-13 9.86923e-13 9.86923e-13 9.86923e-13 9.86923e-13 9.86923e-13 9.86923e-13 9.86923e-13
          9.86923e-13 9.86923e-13 9.86923e-13 9.86923e-13 9.86923e-13 9.86923e-13 9.86923e-13 9.86923e-13 9.86923e-13 9.86923e-13 9.86923e-13 9.86923e-13
          9.86923e-13 9.86923e-13 9.86923e-13 9.86923e-13 9.86923e-13 9.86923e-13 9.86923e-13 9.86923e-13 9.86923e-13 9.86923e-13 9.86923e-13 9.86923e-13
          9.86923e-13 9.86923e-13 9.86923e-13 9.86923e-13 9.86923e-13 9.86923e-13 9.86923e-13 9.86923e-13 9.86923e-13 9.86923e-13 9.86923e-13 9.86923e-13
          9.86923e-13 9.86923e-13 9.86923e-13 9.86923e-13 9.86923e-13 9.86923e-13 9.86923e-13 9.86923e-13 9.86923e-13 9.86923e-13 9.86923e-13 9.86923e-13
          9.86923e-13 9.86923e-13 9.86923e-13 9.86923e-13 9.86923e-13 9.86923e-13 9.86923e-13 9.86923e-13 9.86923e-13 9.86923e-13 9.86923e-13 9.86923e-13
          9.86923e-13 9.86923e-13 9.86923e-13 9.86923e-13 9.86923e-13 9.86923e-13 9.86923e-13 9.86923e-13 9.86923e-13 9.86923e-13 9.86923e-13 9.86923e-13
          9.86923e-13 9.86923e-13 9.86923e-13 9.86923e-13 9.86923e-13 9.86923e-13 9.86923e-13 9.86923e-13 9.86923e-13 9.86923e-13 9.86923e-13 9.86923e-13
          9.86923e-13 9.86923e-13 9.86923e-13 9.86923e-13 9.86923e-13 9.86923e-13 9.86923e-13 9.86923e-13 9.86923e-13 9.86923e-13 9.86923e-13 9.86923e-13
          9.86923e-13 9.86923e-13 9.86923e-13 9.86923e-13 9.86923e-13 9.86923e-13 9.86923e-13 9.86923e-13 9.86923e-13 9.86923e-13 9.86923e-13 9.86923e-13
          9.86923e-13 9.86923e-13 9.86923e-13 9.86923e-13 9.86923e-13 9.86923e-13 9.86923e-13 9.86923e-13 9.86923e-13 9.86923e-13 9.86923e-13 9.86923e-13
          9.86923e-13 9.86923e-13 9.86923e-13 9.86923e-13 9.86923e-13 9.86923e-13 9.86923e-13 9.86923e-13 9.86923e-13 9.86923e-13 9.86923e-13 9.86923e-13
          9.86923e-13 9.86923e-13 9.86923e-13 9.86923e-13 9.86923e-13 9.86923e-13 9.86923e-13 9.86923e-13 9.86923e-13 9.86923e-13 9.86923e-13 9.86923e-13
          9.86923e-13 9.86923e-13 9.86923e-13 9.86923e-13 9.86923e-13 9.86923e-13 9.86923e-13 9.86923e-13 9.86923e-13 9.86923e-13 9.86923e-13 9.86923e-13
          9.86923e-13 9.86923e-13 9.86923e-13 9.86923e-13 9.86923e-13 9.86923e-13 9.86923e-13 9.86923e-13 9.86923e-13 9.86923e-13 9.86923e-13 9.86923e-13
          9.86923e-13 9.86923e-13 9.86923e-13 9.86923e-13 9.86923e-13 9.86923e-13 9.86923e-13 9.86923e-13 9.86923e-13 9.86923e-13 9.86923e-13 9.86923e-13
          9.86923e-13 9.86923e-13 9.86923e-13 9.86923e-13 9.86923e-13 9.86923e-13 9.86923e-13 9.86923e-13 9.86923e-13 9.86923e-13 9.86923e-13 9.86923e-13
          9.86923e-13 9.86923e-13 9.86923e-13 9.86923e-13 9.86923e-13 9.86923e-13 9.86923e-13 9.86923e-13 9.86923e-13 9.86923e-13 9.86923e-13 9.86923e-13
          9.86923e-13 9.86923e-13 9.86923e-13 9.86923e-13 9.86923e-13 9.86923e-13 9.86923e-13 9.86923e-13 9.86923e-13 9.86923e-13 9.86923e-13 9.86923e-13
          9.86923e-13 9.86923e-13 9.86923e-13 9.86923e-13 9.86923e-13 9.86923e-13 9.86923e-13 9.86923e-13 9.86923e-13 9.86923e-13 9.86923e-13 9.86923e-13
          9.86923e-13 9.86923e-13 9.86923e-13 9.86923e-13 9.86923e-13 9.86923e-13 9.86923e-13 9.86923e-13 9.86923e-13 9.86923e-13 9.86923e-13 9.86923e-13
          9.86923e-13 9.86923e-13 9.86923e-13 9.86923e-13
        </DataArray>
        <DataArray type="Float32" Name="ReservoirDist" NumberOfComponents="1" format="ascii">
          45.25 45.25 45.25 45.25 45.25 45.25 45.25 45.25 45.25 45.25 45.25 45.25
          45.25 45.25 45.25 45.25 45.25 45.25 45.25 45.25 45.25 45.25 45.25 45.25
          45.25 45.25 45.25 45.25 45.25 45.25 45.25 45.25 45.25 45.25 45.25 45.25
          45.25 45.25 45.25 45.25 45.25 45.25 45.25 45.25 45.25 45.25 45.25 45.25
          45.25 45.25 45.25 45.25 45.25 45.25 45.25 45.25 45.25 45.25 45.25 45.25
          45.25 45.25 45.25 45.25 45.25 45.25 45.25 45.25 45.25 45.25 45.25 45.25
          45.25 45.25 45.25 45.25 45.25 45.25 45.25 45.25 45.25 45.25 45.25 45.25
          45.25 45.25 45.25 45.25 45.25 45.25 45.25 45.25 45.25 45.25 45.25 45.25
          45.25 45.25 45.25 45.25 45.25 45.25 45.25 45.25 45.25 45.25 45.25 45.25
          45.25 45.25 45.25 45.25 45.25 45.25 45.25 45.25 45.25 45.25 45.25 45.25
          45.25 45.25 45.25 45.25 45.25 45.25 45.25 45.25 45.25 45.25 45.25 45.25
          45.25 45.25 45.25 45.25 45.25 45.25 45.25 45.25 45.25 45.25 45.25 45.25
          45.25 45.25 45.25 45.25 45.25 45.25 45.25 45.25 45.25 45.25 45.25 45.25
          45.25 45.25 45.25 45.25 45.25 45.25 45.25 45.25 45.25 45.25 45.25 45.25
          45.25 45.25 45.25 45.25 45.25 45.25 45.25 45.25 45.25 45.25 45.25 45.25
          45.25 45.25 45.25 45.25 45.25 45.25 45.25 45.25 45.25 45.25 45.25 45.25
          45.25 45.25 45.25 45.25 45.25 45.25 45.25 45.25 45.25 45.25 45.25 45.25
          45.25 45.25 45.25 45.25 45.25 45.25 45.25 45.25 45.25 45.25 45.25 45.25
          45.25 45.25 45.25 45.25 45.25 45.25 45.25 45.25 45.25 45.25 45.25 45.25
          45.25 45.25 45.25 45.25 45.25 45.25 45.25 45.25 45.25 45.25 45.25 45.25
          45.25 45.25 45.25 45.25 45.25 45.25 45.25 45.25 45.25 45.25 45.25 45.25
          45.25 45.25 45.25 45.25 45.25 45.25 45.25 45.25 45.25 45.25 45.25 45.25
          45.25 45.25 45.25 45.25 45.25 45.25 45.25 45.25 45.25 45.25 45.25 45.25
          45.25 45.25 45.25 45.25 45.25 45.25 45.25 45.25 45.25 45.25 45.25 45.25
          45.25 45.25 45.25 45.25 45.25 45.25 45.25 45.25 45.25 45.25 45.25 45.25
          45.25 45.25 45.25 45.25 45.25 45.25 45.25 45.25 45.25 45.25 45.25 45.25
          45.25 45.25 45.25 45.25 45.25 45.25 45.25 45.25 45.25 45.25 45.25 45.25
          45.25 45.25 45.25 45.25 45.25 45.25 45.25 45.25 45.25 45.25 45.25 45.25
          45.25 45.25 45.25 45.25 45.25 45.25 45.25 45.25 45.25 45.25 45.25 45.25
          45.25 45.25 45.25 45.25 45.25 45.25 45.25 45.25 45.25 45.25 45.25 45.25
          45.25 45.25 45.25 45.25 45.25 45.25 45.25 45.25 45.25 45.25 45.25 45.25
          45.25 45.25 45.25 45.25 45.25 45.25 45.25 45.25 45.25 45.25 45.25 45.25
          45.25 45.25 45.25 45.25 45.25 45.25 45.25 45.25 45.25 45.25 45.25 45.25
          45.25 45.25 45.25 45.25
        </DataArray>
        <DataArray type="Float32" Name="ReservoirCStres" NumberOfComponents="1" format="ascii">
          5.55e+06 5.55e+06 5.55e+06 5.55e+06 5.55e+06 5.55e+06 5.55e+06 5.55e+06 5.55e+06 5.55e+06 5.55e+06 5.55e+06
          5.55e+06 5.55e+06 5.55e+06 5.55e+06 5.55e+06 5.55e+06 5.55e+06 5.55e+06 5.55e+06 5.55e+06 5.55e+06 5.55e+06
          5.55e+06 5.55e+06 5.55e+06 5.55e+06 5.55e+06 5.55e+06 5.55e+06 5.55e+06 5.55e+06 5.55e+06 5.55e+06 5.55e+06
          5.55e+06 5.55e+06 5.55e+06 5.55e+06 5.55e+06 5.55e+06 5.55e+06 5.55e+06 5.55e+06 5.55e+06 5.55e+06 5.55e+06
          5.55e+06 5.55e+06 5.55e+06 5.55e+06 5.55e+06 5.55e+06 5.55e+06 5.55e+06 5.55e+06 5.55e+06 5.55e+06 5.55e+06
          5.55e+06 5.55e+06 5.55e+06 5.55e+06 5.55e+06 5.55e+06 5.55e+06 5.55e+06 5.55e+06 5.55e+06 5.55e+06 5.55e+06
          5.55e+06 5.55e+06 5.55e+06 5.55e+06 5.55e+06 5.55e+06 5.55e+06 5.55e+06 5.55e+06 5.55e+06 5.55e+06 5.55e+06
          5.55e+06 5.55e+06 5.55e+06 5.55e+06 5.55e+06 5.55e+06 5.55e+06 5.55e+06 5.55e+06 5.55e+06 5.55e+06 5.55e+06
          5.55e+06 5.55e+06 5.55e+06 5.55e+06 5.55e+06 5.55e+06 5.55e+06 5.55e+06 5.55e+06 5.55e+06 5.55e+06 5.55e+06
          5.55e+06 5.55e+06 5.55e+06 5.55e+06 5.55e+06 5.55e+06 5.55e+06 5.55e+06 5.55e+06 5.55e+06 5.55e+06 5.55e+06
          5.55e+06 5.55e+06 5.55e+06 5.55e+06 5.55e+06 5.55e+06 5.55e+06 5.55e+06 5.55e+06 5.55e+06 5.55e+06 5.55e+06
          5.55e+06 5.55e+06 5.55e+06 5.55e+06 5.55e+06 5.55e+06 5.55e+06 5.55e+06 5.55e+06 5.55e+06 5.55e+06 5.55e+06
          5.55e+06 5.55e+06 5.55e+06 5.55e+06 5.55e+06 5.55e+06 5.55e+06 5.55e+06 5.55e+06 5.55e+06 5.55e+06 5.55e+06
          5.55e+06 5.55e+06 5.55e+06 5.55e+06 5.55e+06 5.55e+06 5.55e+06 5.55e+06 5.55e+06 5.55e+06 5.55e+06 5.55e+06
          5.55e+06 5.55e+06 5.55e+06 5.55e+06 5.55e+06 5.55e+06 5.55e+06 5.55e+06 5.55e+06 5.55e+06 5.55e+06 5.55e+06
          5.55e+06 5.55e+06 5.55e+06 5.55e+06 5.55e+06 5.55e+06 5.55e+06 5.55e+06 5.55e+06 5.55e+06 5.55e+06 5.55e+06
          5.55e+06 5.55e+06 5.55e+06 5.55e+06 5.55e+06 5.55e+06 5.55e+06 5.55e+06 5.55e+06 5.55e+06 5.55e+06 5.55e+06
          5.55e+06 5.55e+06 5.55e+06 5.55e+06 5.55e+06 5.55e+06 5.55e+06 5.55e+06 5.55e+06 5.55e+06 5.55e+06 5.55e+06
          5.55e+06 5.55e+06 5.55e+06 5.55e+06 5.55e+06 5.55e+06 5.55e+06 5.55e+06 5.55e+06 5.55e+06 5.55e+06 5.55e+06
          5.55e+06 5.55e+06 5.55e+06 5.55e+06 5.55e+06 5.55e+06 5.55e+06 5.55e+06 5.55e+06 5.55e+06 5.55e+06 5.55e+06
          5.55e+06 5.55e+06 5.55e+06 5.55e+06 5.55e+06 5.55e+06 5.55e+06 5.55e+06 5.55e+06 5.55e+06 5.55e+06 5.55e+06
          5.55e+06 5.55e+06 5.55e+06 5.55e+06 5.55e+06 5.55e+06 5.55e+06 5.55e+06 5.55e+06 5.55e+06 5.55e+06 5.55e+06
          5.55e+06 5.55e+06 5.55e+06 5.55e+06 5.55e+06 5.55e+06 5.55e+06 5.55e+06 5.55e+06 5.55e+06 5.55e+06 5.55e+06
          5.55e+06 5.55e+06 5.55e+06 5.55e+06 5.55e+06 5.55e+06 5.55e+06 5.55e+06 5.55e+06 5.55e+06 5.55e+06 5.55e+06
          5.55e+06 5.55e+06 5.55e+06 5.55e+06 5.55e+06 5.55e+06 5.55e+06 5.55e+06 5.55e+06 5.55e+06 5.55e+06 5.55e+06
          5.55e+06 5.55e+06 5.55e+06 5.55e+06 5.55e+06 5.55e+06 5.55e+06 5.55e+06 5.55e+06 5.55e+06 5.55e+06 5.55e+06
          5.55e+06 5.55e+06 5.55e+06 5.55e+06 5.55e+06 5.55e+06 5.55e+06 5.55e+06 5.55e+06 5.55e+06 5.55e+06 5.55e+06
          5.55e+06 5.55e+06 5.55e+06 5.55e+06 5.55e+06 5.55e+06 5.55e+06 5.55e+06 5.55e+06 5.55e+06 5.55e+06 5.55e+06
          5.55e+06 5.55e+06 5.55e+06 5.55e+06 5.55e+06 5.55e+06 5.55e+06 5.55e+06 5.55e+06 5.55e+06 5.55e+06 5.55e+06
          5.55e+06 5.55e+06 5.55e+06 5.55e+06 5.55e+06 5.55e+06 5.55e+06 5.55e+06 5.55e+06 5.55e+06 5.55e+06 5.55e+06
          5.55e+06 5.55e+06 5.55e+06 5.55e+06 5.55e+06 5.55e+06 5.55e+06 5.55e+06 5.55e+06 5.55e+06 5.55e+06 5.55e+06
          5.55e+06 5.55e+06 5.55e+06 5.55e+06 5.55e+06 5.55e+06 5.55e+06 5.55e+06 5.55e+06 5.55e+06 5.55e+06 5.55e+06
          5.55e+06 5.55e+06 5.55e+06 5.55e+06 5.55e+06 5.55e+06 5.55e+06 5.55e+06 5.55e+06 5.55e+06 5.55e+06 5.55e+06
          5.55e+06 5.55e+06 5.55e+06 5.55e+06
        </DataArray>
        <DataArray type="Float32" Name="FracturePressure" NumberOfComponents="1" format="ascii">
          2.22852e+07 2.22852e+07 2.22852e+07 2.20186e+07 2.19444e+07 2.22852e+07 2.22852e+07 2.22852e+07 2.22852e+07 2.22852e+07 2.22852e+07 2.22852e+07
          2.20186e+07 2.22852e+07 2.22852e+07 2.22852e+07 2.22852e+07 2.22852e+07 2.22852e+07 2.22852e+07 2.22852e+07 2.22852e+07 2.22852e+07 2.22852e+07
          2.22852e+07 2.22852e+07 2.22852e+07 2.22852e+07 2.22852e+07 2.22852e+07 2.22852e+07 2.22852e+07 2.22852e+07 2.22852e+07 2.22852e+07 2.22852e+07
          2.22852e+07 2.22852e+07 2.22852e+07 2.22852e+07 2.22852e+07 2.22852e+07 2.22852e+07 2.22852e+07 2.22852e+07 2.22852e+07 2.22852e+07 2.22852e+07
          2.22852e+07 2.22852e+07 2.22852e+07 2.22852e+07 2.22852e+07 2.22852e+07 2.22852e+07 2.22852e+07 2.22852e+07 2.22852e+07 2.22852e+07 2.22852e+07
          2.22852e+07 2.22852e+07 2.22852e+07 2.22852e+07 2.22852e+07 2.22852e+07 2.22852e+07 2.22852e+07 2.22852e+07 2.22852e+07 2.22852e+07 2.22852e+07
          2.22852e+07 2.22852e+07 2.22852e+07 2.22852e+07 2.22852e+07 2.22852e+07 2.22852e+07 2.22852e+07 2.22852e+07 2.22852e+07 2.22852e+07 2.22852e+07
          2.22852e+07 2.22852e+07 2.22852e+07 2.22852e+07 2.22852e+07 2.22852e+07 2.22852e+07 2.22852e+07 2.22852e+07 2.22852e+07 2.22852e+07 2.22852e+07
          2.22852e+07 2.22852e+07 2.22852e+07 2.22852e+07 2.22852e+07 2.22852e+07 2.22852e+07 2.22852e+07 2.22852e+07 2.22852e+07 2.22852e+07 2.22852e+07
          2.22852e+07 2.22852e+07 2.22852e+07 2.22852e+07 2.22852e+07 2.22852e+07 2.22852e+07 2.22852e+07 2.22852e+07 2.22852e+07 2.22852e+07 2.22852e+07
          2.22852e+07 2.22852e+07 2.22852e+07 2.22852e+07 2.22852e+07 2.22852e+07 2.22852e+07 2.22852e+07 2.22852e+07 2.22852e+07 2.22852e+07 2.22852e+07
          2.22852e+07 2.22852e+07 2.22852e+07 2.22852e+07 2.22852e+07 2.22852e+07 2.22852e+07 2.22852e+07 2.22852e+07 2.22852e+07 2.22852e+07 2.22852e+07
          2.22852e+07 2.22852e+07 2.22852e+07 2.22852e+07 2.22852e+07 2.22852e+07 2.22852e+07 2.22852e+07 2.22852e+07 2.22852e+07 2.22852e+07 2.22852e+07
          2.22852e+07 2.22852e+07 2.22852e+07 2.22852e+07 2.22852e+07 2.22852e+07 2.22852e+07 2.22852e+07 2.22852e+07 2.22852e+07 2.22852e+07 2.22852e+07
          2.22852e+07 2.22852e+07 2.22852e+07 2.22852e+07 2.22852e+07 2.22852e+07 2.22852e+07 2.22852e+07 2.22852e+07 2.22852e+07 2.22852e+07 2.22852e+07
          2.22852e+07 2.22852e+07 2.22852e+07 2.22852e+07 2.22852e+07 2.22852e+07 2.22852e+07 2.22852e+07 2.22852e+07 2.22852e+07 2.22852e+07 2.22852e+07
          2.22852e+07 2.22852e+07 2.22852e+07 2.22852e+07 2.22852e+07 2.22852e+07 2.22852e+07 2.22852e+07 2.22852e+07 2.22852e+07 2.22852e+07 2.22852e+07
          2.22852e+07 2.22852e+07 2.22852e+07 2.22852e+07 2.22852e+07 2.22852e+07 2.22852e+07 2.22852e+07 2.22852e+07 2.22852e+07 2.22852e+07 2.22852e+07
          2.22852e+07 2.22852e+07 2.22852e+07 2.22852e+07 2.22852e+07 2.22852e+07 2.22852e+07 2.22852e+07 2.22852e+07 2.22852e+07 2.22852e+07 2.22852e+07
          2.22852e+07 2.22852e+07 2.22852e+07 2.22852e+07 2.22852e+07 2.22852e+07 2.22852e+07 2.22852e+07 2.22852e+07 2.22852e+07 2.22852e+07 2.22852e+07
          2.22852e+07 2.22852e+07 2.22852e+07 2.22852e+07 2.22852e+07 2.22852e+07 2.22852e+07 2.22852e+07 2.22852e+07 2.22852e+07 2.22852e+07 2.22852e+07
          2.22852e+07 2.22852e+07 2.22852e+07 2.22852e+07 2.22852e+07 2.22852e+07 2.22852e+07 2.22852e+07 2.22852e+07 2.22852e+07 2.22852e+07 2.22852e+07
          2.22852e+07 2.22852e+07 2.22852e+07 2.22852e+07 2.22852e+07 2.22852e+07 2.22852e+07 2.22852e+07 2.22852e+07 2.22852e+07 2.22852e+07 2.22852e+07
          2.22852e+07 2.22852e+07 2.22852e+07 2.22852e+07 2.22852e+07 2.22852e+07 2.22852e+07 2.22852e+07 2.22852e+07 2.22852e+07 2.22852e+07 2.22852e+07
          2.20186e+07 2.22852e+07 2.22852e+07 2.22852e+07 2.22852e+07 2.22852e+07 2.22852e+07 2.22852e+07 2.22852e+07 2.22852e+07 2.22852e+07 2.22852e+07
          2.22852e+07 2.22852e+07 2.22852e+07 2.22852e+07 2.22852e+07 2.22852e+07 2.22852e+07 2.22852e+07 2.22852e+07 2.22852e+07 2.22852e+07 2.22852e+07
          2.22852e+07 2.22852e+07 2.22852e+07 2.22852e+07 2.22852e+07 2.22852e+07 2.19444e+07 2.20186e+07 2.22852e+07 2.22852e+07 2.22852e+07 2.22852e+07
          2.22852e+07 2.22852e+07 2.22852e+07 2.22852e+07 2.22852e+07 2.22852e+07 2.22852e+07 2.22852e+07 2.22852e+07 2.22852e+07 2.22852e+07 2.22852e+07
          2.22852e+07 2.22852e+07 2.22852e+07 2.22852e+07 2.22852e+07 2.22852e+07 2.22852e+07 2.22852e+07 2.22852e+07 2.22852e+07 2.22852e+07 2.22852e+07
          2.22852e+07 2.22852e+07 2.22852e+07 2.22852e+07 2.22852e+07 2.22852e+07 2.22852e+07 2.22852e+07 2.22852e+07 2.22852e+07 2.22852e+07 2.22852e+07
          2.22852e+07 2.22852e+07 2.22852e+07 2.22852e+07 2.22852e+07 2.22852e+07 2.22852e+07 2.22852e+07 2.22852e+07 2.22852e+07 2.22852e+07 2.22852e+07
          2.22852e+07 2.22852e+07 2.22852e+07 2.22852e+07 2.22852e+07 2.22852e+07 2.22852e+07 2.22852e+07 2.22852e+07 2.22852e+07 2.22852e+07 2.22852e+07
          2.22852e+07 2.22852e+07 2.22852e+07 2.22852e+07 2.22852e+07 2.22852e+07 2.22852e+07 2.22852e+07 2.22852e+07 2.22852e+07 2.22852e+07 2.22852e+07
          2.22852e+07 2.22852e+07 2.22852e+07 2.22852e+07
        </DataArray>
        <DataArray type="Float32" Name="FractureHead" NumberOfComponents="1" format="ascii">
          -23.0825 -23.7908 -23.7008 -266636 -340817 -21.63 -21.9531 -21.9625 -22.3575 -22.3123 -22.7779 -22.6924
          -266636 -20.5156 -20.8385 -20.9091 -21.244 -21.3041 -21.619 -21.6666 -21.9525 -21.9721 -22.2483 -22.2739
          -19.2871 -19.6596 -19.7853 -20.167 -20.2844 -20.6367 -20.7541 -21.0687 -21.178 -21.4698 -21.5876 -21.8159
          -21.9357 -22.1434 -22.2823 -17.8964 -18.3121 -18.4757 -18.9208 -19.0818 -19.5016 -19.6666 -20.0471 -20.206
          -20.5647 -20.7319 -21.0267 -21.1945 -21.4677 -21.6383 -21.8742 -22.0786 -22.2966 -22.6219 -16.5714 -16.9205
          -17.043 -17.5079 -17.6753 -18.1591 -18.3561 -18.8122 -19.0108 -19.4483 -19.6561 -20.0237 -20.2301 -20.5769
          -20.7778 -21.0869 -21.3017 -21.5856 -21.8474 -22.1099 -22.5153 -22.8584 -23.572 -16.0886 -16.0886 -15.9791
          -16.2293 -16.2482 -16.6945 -16.8403 -17.355 -17.5672 -18.092 -18.3377 -18.7862 -19.0334 -19.4591 -19.6942
          -20.077 -20.3145 -20.6667 -20.9251 -21.2427 -21.5577 -21.8884 -22.3077 -22.6833 -23.3247 -23.9069 -25.0548
          -16.9205 -16.5714 -16.2293 -15.9791 -15.7039 -15.7039 -15.5238 -15.8717 -15.9032 -16.4905 -16.728 -17.278
          -17.5703 -18.0907 -18.3705 -18.8357 -19.1091 -19.5355 -19.8158 -20.197 -20.5016 -20.8761 -21.219 -21.5791
          -22.0027 -22.4006 -22.9924 -23.5346 -24.6506 -25.542 -18.3121 -17.8964 -17.5079 -17.043 -16.6945 -16.2482
          -15.8717 -15.5238 -15.0974 -15.0974 -14.8067 -15.4416 -15.6881 -16.3805 -16.7356 -17.318 -17.654 -18.1686
          -18.4926 -18.9461 -19.2739 -19.7111 -20.0499 -20.4502 -20.8231 -21.2131 -21.6512 -22.0558 -22.6749 -23.0998
          -19.6596 -19.2871 -18.9208 -18.4757 -18.1591 -17.6753 -17.355 -16.8403 -16.4905 -15.9032 -15.4416 -14.8067
          -14.0095 -14.0095 -14.1939 -15.2278 -15.8149 -16.4865 -16.9239 -17.4618 -17.8496 -18.3532 -18.7218 -19.1776
          -19.5564 -19.9875 -20.3975 -20.809 -21.3236 -21.6908 -20.8385 -20.5156 -20.167 -19.7853 -19.5016 -19.0818
          -18.8122 -18.3561 -18.092 -17.5672 -17.278 -16.728 -16.3805 -15.6881 -15.2278 -14.1939 -14.2 -14.2
          -15.1276 -15.7216 -16.2937 -16.8239 -17.274 -17.7548 -18.1671 -18.6328 -19.0516 -19.4988 -19.9971 -20.3837
          -21.9531 -21.63 -21.244 -20.9091 -20.6367 -20.2844 -20.0471 -19.6666 -19.4483 -19.0108 -18.7862 -18.3377
          -18.0907 -17.5703 -17.318 -16.7356 -16.4865 -15.8149 -15.7216 -15.1276 -15.5648 -15.5648 -16.1082 -16.4103
          -16.8893 -17.2678 -17.7036 -18.1202 -18.6077 -19.0072 -23.7908 -23.0825 -22.3575 -21.9625 -21.619 -21.3041
          -21.0687 -20.7541 -20.5647 -20.206 -20.0237 -19.6561 -19.4591 -19.0334 -18.8357 -18.3705 -18.1686 -17.654
          -17.4618 -16.9239 -16.8239 -16.2937 -16.4103 -16.1082 -16.4376 -16.4376 -16.8702 -17.0624 -17.5991 -17.7735
          -266636 -23.7008 -22.7779 -22.3123 -21.9525 -21.6666 -21.4698 -21.178 -21.0267 -20.7319 -20.5769 -20.2301
          -20.077 -19.6942 -19.5355 -19.1091 -18.9461 -18.4926 -18.3532 -17.8496 -17.7548 -17.274 -17.2678 -16.8893
          -17.0624 -16.8702 -17.2852 -17.2852 -21.8664 -22.2494 -340817 -266636 -22.6924 -22.2483 -21.9721 -21.8159
          -21.5876 -21.4677 -21.1945 -21.0869 -20.7778 -20.6667 -20.3145 -20.197 -19.8158 -19.7111 -19.2739 -19.1776
          -18.7218 -18.6328 -18.1671 -18.1202 -17.7036 -17.7735 -17.5991 -22.2494 -21.8664 -22.2739 -22.1434 -21.9357
          -21.8742 -21.6383 -21.5856 -21.3017 -21.2427 -20.9251 -20.8761 -20.5016 -20.4502 -20.0499 -19.9875 -19.5564
          -19.4988 -19.0516 -19.0072 -18.6077 -22.2823 -22.2966 -22.0786 -22.1099 -21.8474 -21.8884 -21.5577 -21.5791
          -21.219 -21.2131 -20.8231 -20.809 -20.3975 -20.3837 -19.9971 -22.6219 -22.8584 -22.5153 -22.6833 -22.3077
          -22.4006 -22.0027 -22.0558 -21.6512 -21.6908 -21.3236 -23.572 -23.9069 -23.3247 -23.5346 -22.9924 -23.0998
          -22.6749 -25.0548 -25.542 -24.6506
        </DataArray>
        <DataArray type="Float32" Name="ReservoirPressure" NumberOfComponents="1" format="ascii">
          2.21219e+07 2.21219e+07 2.21219e+07 2.1909e+07 2.1909e+07 2.21219e+07 2.21219e+07 2.21219e+07 2.21219e+07 2.21219e+07 2.21219e+07 2.21219e+07
          2.1909e+07 2.21219e+07 2.21219e+07 2.21219e+07 2.21219e+07 2.21219e+07 2.21219e+07 2.21219e+07 2.21219e+07 2.21219e+07 2.21219e+07 2.19618e+07
          2.21219e+07 2.21219e+07 2.21219e+07 2.21219e+07 2.21219e+07 2.21219e+07 2.21219e+07 2.21219e+07 2.21219e+07 2.21219e+07 2.19618e+07 2.19618e+07
          2.19618e+07 2.19618e+07 2.19618e+07 2.21219e+07 2.21219e+07 2.21219e+07 2.21219e+07 2.21219e+07 2.21219e+07 2.21219e+07 2.21219e+07 2.21219e+07
          2.21219e+07 2.19618e+07 2.19618e+07 2.19618e+07 2.19618e+07 2.19618e+07 2.19618e+07 2.19618e+07 2.19618e+07 2.19618e+07 2.21219e+07 2.21219e+07
          2.21219e+07 2.21219e+07 2.21219e+07 2.21219e+07 2.21219e+07 2.21219e+07 2.21219e+07 2.21219e+07 2.19618e+07 2.19618e+07 2.19618e+07 2.19618e+07
          2.19618e+07 2.19618e+07 2.19618e+07 2.19618e+07 2.19618e+07 2.19618e+07 2.17234e+07 2.17234e+07 2.17234e+07 2.21219e+07 2.21219e+07 2.21219e+07
          2.21219e+07 2.21219e+07 2.21219e+07 2.21219e+07 2.21219e+07 2.21219e+07 2.21219e+07 2.19618e+07 2.19618e+07 2.19618e+07 2.19618e+07 2.19618e+07
          2.19618e+07 2.19618e+07 2.19618e+07 2.19618e+07 2.19618e+07 2.17234e+07 2.17234e+07 2.17234e+07 2.17234e+07 2.17234e+07 2.17234e+07 2.17234e+07
          2.21219e+07 2.21219e+07 2.21219e+07 2.21219e+07 2.21219e+07 2.21219e+07 2.21219e+07 2.21219e+07 2.21219e+07 2.21219e+07 2.19618e+07 2.19618e+07
          2.19618e+07 2.19618e+07 2.19618e+07 2.19618e+07 2.19618e+07 2.19618e+07 2.19618e+07 2.19618e+07 2.17234e+07 2.17234e+07 2.17234e+07 2.17234e+07
          2.17234e+07 2.17234e+07 2.17234e+07 2.17234e+07 2.17234e+07 2.17234e+07 2.21219e+07 2.21219e+07 2.21219e+07 2.21219e+07 2.21219e+07 2.21219e+07
          2.21219e+07 2.21219e+07 2.21219e+07 2.21219e+07 2.19618e+07 2.19618e+07 2.19618e+07 2.19618e+07 2.19618e+07 2.19618e+07 2.19618e+07 2.19618e+07
          2.19618e+07 2.19618e+07 2.17234e+07 2.17234e+07 2.17234e+07 2.17234e+07 2.17234e+07 2.17234e+07 2.17234e+07 2.17234e+07 2.17234e+07 2.17234e+07
          2.21219e+07 2.21219e+07 2.21219e+07 2.21219e+07 2.21219e+07 2.21219e+07 2.21219e+07 2.21219e+07 2.21219e+07 2.21219e+07 2.19618e+07 2.19618e+07
          2.19618e+07 2.19618e+07 2.19618e+07 2.19618e+07 2.19618e+07 2.19618e+07 2.19618e+07 2.19618e+07 2.17234e+07 2.17234e+07 2.17234e+07 2.17234e+07
          2.17234e+07 2.17234e+07 2.17234e+07 2.17234e+07 2.17234e+07 2.17234e+07 2.21219e+07 2.21219e+07 2.21219e+07 2.21219e+07 2.21219e+07 2.21219e+07
          2.21219e+07 2.21219e+07 2.21219e+07 2.21219e+07 2.19618e+07 2.19618e+07 2.19618e+07 2.19618e+07 2.19618e+07 2.19618e+07 2.19618e+07 2.19618e+07
          2.19618e+07 2.19618e+07 2.17234e+07 2.17234e+07 2.17234e+07 2.17234e+07 2.17234e+07 2.17234e+07 2.17234e+07 2.17234e+07 2.17234e+07 2.17234e+07
          2.21219e+07 2.21219e+07 2.21219e+07 2.21219e+07 2.21219e+07 2.21219e+07 2.21219e+07 2.21219e+07 2.21219e+07 2.21219e+07 2.19618e+07 2.19618e+07
          2.19618e+07 2.19618e+07 2.19618e+07 2.19618e+07 2.19618e+07 2.19618e+07 2.19618e+07 2.19618e+07 2.17234e+07 2.17234e+07 2.17234e+07 2.17234e+07
          2.17234e+07 2.17234e+07 2.17234e+07 2.17234e+07 2.17234e+07 2.17234e+07 2.21219e+07 2.21219e+07 2.21219e+07 2.21219e+07 2.21219e+07 2.21219e+07
          2.21219e+07 2.21219e+07 2.21219e+07 2.21219e+07 2.19618e+07 2.19618e+07 2.19618e+07 2.19618e+07 2.19618e+07 2.19618e+07 2.19618e+07 2.19618e+07
          2.19618e+07 2.19618e+07 2.17234e+07 2.17234e+07 2.17234e+07 2.17234e+07 2.17234e+07 2.17234e+07 2.17234e+07 2.17234e+07 2.17234e+07 2.17234e+07
          2.1909e+07 2.21219e+07 2.21219e+07 2.21219e+07 2.21219e+07 2.21219e+07 2.21219e+07 2.21219e+07 2.19618e+07 2.19618e+07 2.19618e+07 2.19618e+07
          2.19618e+07 2.19618e+07 2.19618e+07 2.19618e+07 2.19618e+07 2.19618e+07 2.17234e+07 2.17234e+07 2.17234e+07 2.17234e+07 2.17234e+07 2.17234e+07
          2.17234e+07 2.17234e+07 2.17234e+07 2.17234e+07 2.14171e+07 2.14171e+07 2.1909e+07 2.1909e+07 2.21219e+07 2.21219e+07 2.21219e+07 2.19618e+07
          2.19618e+07 2.19618e+07 2.19618e+07 2.19618e+07 2.19618e+07 2.19618e+07 2.19618e+07 2.19618e+07 2.19618e+07 2.17234e+07 2.17234e+07 2.17234e+07
          2.17234e+07 2.17234e+07 2.17234e+07 2.17234e+07 2.17234e+07 2.17234e+07 2.17234e+07 2.14171e+07 2.14171e+07 2.19618e+07 2.19618e+07 2.19618e+07
          2.19618e+07 2.19618e+07 2.19618e+07 2.19618e+07 2.19618e+07 2.19618e+07 2.17234e+07 2.17234e+07 2.17234e+07 2.17234e+07 2.17234e+07 2.17234e+07
          2.17234e+07 2.17234e+07 2.17234e+07 2.17234e+07 2.19618e+07 2.19618e+07 2.19618e+07 2.19618e+07 2.19618e+07 2.17234e+07 2.17234e+07 2.17234e+07
          2.17234e+07 2.17234e+07 2.17234e+07 2.17234e+07 2.17234e+07 2.17234e+07 2.17234e+07 2.19618e+07 2.17234e+07 2.17234e+07 2.17234e+07 2.17234e+07
          2.17234e+07 2.17234e+07 2.17234e+07 2.17234e+07 2.17234e+07 2.17234e+07 2.17234e+07 2.17234e+07 2.17234e+07 2.17234e+07 2.17234e+07 2.17234e+07
          2.17234e+07 2.17234e+07 2.17234e+07 2.17234e+07
        </DataArray>
        <DataArray type="Float32" Name="LeakofDP" NumberOfComponents="1" format="ascii">
          163284 163283 163283 109609 35428.7 163285 163285 163285 163285 163285 163284 163284
          109610 163286 163286 163286 163286 163286 163285 163285 163285 163285 163285 323440
          163288 163287 163287 163287 163287 163286 163286 163286 163286 163285 323440 323440
          323440 323440 323440 163289 163289 163288 163288 163288 163287 163287 163287 163287
          163286 323441 323441 323441 323441 323440 323440 323440 323440 323439 163290 163290
          163290 163289 163289 163289 163289 163288 163288 163287 323442 323442 323442 323442