<?xml version="1.0"?>
<VTKFile type="UnstructuredGrid" version="0.1" byte_order="LittleEndian">
  <UnstructuredGrid>
    <Piece NumberOfCells="528" NumberOfPoints="322">
      <CellData Scalars="ReservoirCell">
        <DataArray type="Float32" Name="ReservoirCell" NumberOfComponents="1" format="ascii">
          1875 1875 1875 1875 1875 1875 1875 1875 1875 1875 1996 1996
          1875 1875 1875 1875 1875 1875 1875 1875 1875 1875 1875 1875
          1875 1875 1875 1875 1875 1875 1875 1875 1875 1875 1875 1875
          1875 1875 1875 1875 1875 1875 1875 1875 1875 1875 1875 1875
          1875 1875 1875 1875 1875 1875 1875 1875 1875 1875 1875 1875
          1875 1875 1875 1875 1875 1875 1875 1875 1875 1875 1875 1875
          1875 1875 1875 1875 1875 1875 1875 1875 1875 1875 1875 1875
          1875 1875 1875 1875 1875 1875 1875 1875 1875 1875 1875 1875
          1875 1875 1875 1875 1875 1875 1875 1875 1875 1875 1875 1875
          1875 1875 1875 1875 1875 1875 1875 1875 1875 1875 1875 1875
          1875 1875 1875 1875 1875 1875 1875 1875 1875 1875 1875 1875
          1875 1875 1875 1875 1875 1875 1875 1875 1875 1875 1875 1875
          1875 1875 1875 1875 1875 1875 1875 1875 1875 1875 1875 1875
          1875 1875 1875 1875 1875 1875 1875 1875 1875 1875 1875 1875
          1875 1875 1875 1875 1875 1875 1875 1875 1875 1754 1754 1875
          1875 1875 1875 1875 1875 1875 1875 1875 1875 1875 1875 1875
          1875 1875 1875 1875 1875 1875 1875 1875 1875 1875 1875 1875
          1875 1875 1875 1875 1875 1875 1875 1875 1875 1875 1875 1875
          1875 1875 1875 1875 1875 1875 1875 1875 1875 1875 1875 1875
          1875 1875 1875 1875 1875 1875 1875 1875 1875 1875 1875 1875
          1875 1875 1875 1875 1875 1875 1875 1875 1875 1875 1875 1875
          1875 1875 1875 1875 1875 1875 1875 1875 1875 1875 1875 1875
          1875 1875 1875 1875 1875 1875 1875 1875 1875 1875 1875 1875
          1875 1875 1875 1875 1875 1875 1875 1875 1875 1875 1875 1875
          1875 1875 1875 1875 1875 1875 1875 1875 1875 1875 1875 1875
          1875 1875 1875 1875 1875 1875 1875 1875 1875 1875 1875 1875
          1875 1875 1875 1875 1875 1875 1875 1875 1875 1875 1875 1875
          1875 1875 1875 1875 1875 1875 1875 1875 1875 1875 1875 1875
          1875 1875 1875 1875 1875 1875 1875 1875 1875 1875 1875 1875
          1875 1875 1875 1875 1875 1875 1875 1875 1875 1875 1875 1875
          1875 1875 1875 1875 1875 1875 1875 1875 1875 1875 1875 1875
          1875 1875 1875 1875 1875 1875 1875 1875 1875 1875 1875 1875
          1875 1875 1875 1875 1875 1875 1875 1875 1875 1875 1875 1875
          1875 1875 1875 1996 1996 1875 1875 1875 1875 1875 1875 1875
          1875 1875 1875 1875 1875 1875 1875 1875 1875 1875 1875 1875
          1875 1875 1875 1875 1875 1875 1875 1875 1875 1875 1875 1875
          1875 1875 1875 1875 1875 1875 1875 1875 1875 1875 1875 1875
          1875 1875 1875 1875 1875 1875 1875 1875 1875 1875 1875 1875
          1875 1875 1875 1875 1875 1875 1875 1875 1875 1875 1875 1875
          1875 1875 1875 1875 1875 1875 1875 1875 1875 1875 1875 1875
          1875 1754 1754 1875 1875 1875 1875 1875 1875 1875 1875 1875
          1875 1875 1875 1875 1875 1875 1875 1875 1875 1875 1875 1875
          1875 1875 1875 1875 1875 1875 1875 1875 1875 1875 1875 1875
          1875 1875 1875 1875 1875 1875 1875 1875 1875 1875 1875 1875
        </DataArray>
        <DataArray type="Float32" Name="ReservoirPerm" NumberOfComponents="1" format="ascii">
          9.86923e-13 9.86923e-13 9.86923e-13 9.86923e-13 9.86923e-13 9.86923e-13 9.86923e-13 9.86923e-13 9.86923e-13 9.86923e-13 9.86923e-13 9.86923e-13
          9.86923e-13 9.86923e-13 9.86923e-13 9.86923e-13 9.86923e-13 9.86923e-13 9.86923e-13 9.86923e-13 9.86923e-13 9.86923e-13 9.86923e-13 9.86923e-13
          9.86923e-13 9.86923e-13 9.86923e-13 9.86923e-13 9.86923e-13 9.86923e-13 9.86923e-13 9.86923e-13 9.86923e-13 9.86923e-13 9.86923e-13 9.86923e-13
          9.86923e-13 9.86923e-13 9.86923e-13 9.86923e-13 9.86923e-13 9.86923e-13 9.86923e-13 9.86923e-13 9.86923e-13 9.86923e-13 9.86923e-13 9.86923e-13
          9.86923e-13 9.86923e-13 9.86923e-13 9.86923e-13 9.86923e-13 9.86923e-13 9.86923e-13 9.86923e-13 9.86923e-13 9.86923e-13 9.86923e-13 9.86923e-13
          9.86923e-13 9.86923e-13 9.86923e-13 9.86923e-13 9.86923e-13 9.86923e-13 9.86923e-13 9.86923e-13 9.86923e-13 9.86923e-13 9.86923e-13 9.86923e-13
          9.86923e-13 9.86923e-13 9.86923e-13 9.86923e-13 9.86923e-13 9.86923e-13 9.86923e-13 9.86923e-13 9.86923e-13 9.86923e-13 9.86923e-13 9.86923e-13
          9.86923e-13 9.86923e-13 9.86923e-13 9.86923e-13 9.86923e-13 9.86923e-13 9.86923e-13 9.86923e-13 9.86923e-13 9.86923e-13 9.86923e-13 9.86923e-13
          9.86923e-13 9.86923e-13 9.86923e-13 9.86923e-13 9.86923e-13 9.86923e-13 9.86923e-13 9.86923e-13 9.86923e-13 9.86923e-13 9.86923e-13 9.86923e-13
          9.86923e-13 9.86923e-13 9.86923e-13 9.86923e-13 9.86923e-13 9.86923e-13 9.86923e-13 9.86923e-13 9.86923e-13 9.86923e-13 9.86923e-13 9.86923e-13
          9.86923e-13 9.86923e-13 9.86923e-13 9.86923e-13 9.86923e-13 9.86923e-13 9.86923e-13 9.86923e-13 9.86923e-13 9.86923e-13 9.86923e-13 9.86923e-13
          9.86923e-13 9.86923e-13 9.86923e-13 9.86923e-13 9.86923e-13 9.86923e-13 9.86923e-13 9.86923e-13 9.86923e-13 9.86923e-13 9.86923e-13 9.86923e-13
          9.86923e-13 9.86923e-13 9.86923e-13 9.86923e-13 9.86923e-13 9.86923e-13 9.86923e-13 9.86923e-13 9.86923e-13 9.86923e-13 9.86923e-13 9.86923e-13
          9.86923e-13 9.86923e-13 9.86923e-13 9.86923e-13 9.86923e-13 9.86923e-13 9.86923e-13 9.86923e-13 9.86923e-13 9.86923e-13 9.86923e-13 9.86923e-13
          9.86923e-13 9.86923e-13 9.86923e-13 9.86923e-13 9.86923e-13 9.86923e-13 9.86923e-13 9.86923e-13 9.86923e-13 9.86923e-13 9.86923e-13 9.86923e-13
          9.86923e-13 9.86923e-13 9.86923e-13 9.86923e-13 9.86923e-13 9.86923e-13 9.86923e-13 9.86923e-13 9.86923e-13 9.86923e-13 9.86923e-13 9.86923e-13
          9.86923e-13 9.86923e-13 9.86923e-13 9.86923e-13 9.86923e-13 9.86923e-13 9.86923e-13 9.86923e-13 9.86923e-13 9.86923e-13 9.86923e-13 9.86923e-13
          9.86923e-13 9.86923e-13 9.86923e-13 9.86923e-13 9.86923e-13 9.86923e-13 9.86923e-13 9.86923e-13 9.86923e-13 9.86923e-13 9.86923e-13 9.86923e-13
          9.86923e-13 9.86923e-13 9.86923e-13 9.86923e-13 9.86923e-13 9.86923e-13 9.86923e-13 9.86923e-13 9.86923e-13 9.86923e-13 9.86923e-13 9.86923e-13
          9.86923e-13 9.86923e-13 9.86923e-13 9.86923e-13 9.86923e-13 9.86923e-13 9.86923e-13 9.86923e-13 9.86923e-13 9.86923e-13 9.86923e-13 9.86923e-13
          9.86923e-13 9.86923e-13 9.86923e-13 9.86923e-13 9.86923e-13 9.86923e-13 9.86923e-13 9.86923e-13 9.86923e-13 9.86923e-13 9.86923e-13 9.86923e-13
          9.86923e-13 9.86923e-13 9.86923e-13 9.86923e-13 9.86923e-13 9.86923e-13 9.86923e-13 9.86923e-13 9.86923e-13 9.86923e-13 9.86923e-13 9.86923e-13
          9.86923e-13 9.86923e-13 9.86923e-13 9.86923e-13 9.86923e-13 9.86923e-13 9.86923e-13 9.86923e-13 9.86923e-13 9.86923e-13 9.86923e-13 9.86923e-13
          9.86923e-13 9.86923e-13 9.86923e-13 9.86923e-13 9.86923e-13 9.86923e-13 9.86923e-13 9.86923e-13 9.86923e-13 9.86923e-13 9.86923e-13 9.86923e-13
          9.86923e-13 9.86923e-13 9.86923e-13 9.86923e-13 9.86923e-13 9.86923e-13 9.86923e-13 9.86923e-13 9.86923e-13 9.86923e-13 9.86923e-13 9.86923e-13
          9.86923e-13 9.86923e-13 9.86923e-13 9.86923e-13 9.86923e-13 9.86923e-13 9.86923e-13 9.86923e-13 9.86923e-13 9.86923e-13 9.86923e-13 9.86923e-13
          9.86923e-13 9.86923e-13 9.86923e-13 9.86923e-13 9.86923e-13 9.86923e-13 9.86923e-13 9.86923e-13 9.86923e-13 9.86923e-13 9.86923e-13 9.86923e-13
          9.86923e-13 9.86923e-13 9.86923e-13 9.86923e-13 9.86923e-13 9.86923e-13 9.86923e-13 9.86923e-13 9.86923e-13 9.86923e-13 9.86923e-13 9.86923e-13
          9.86923e-13 9.86923e-13 9.86923e-13 9.86923e-13 9.86923e-13 9.86923e-13 9.86923e-13 9.86923e-13 9.86923e-13 9.86923e-13 9.86923e-13 9.86923e-13
          9.86923e-13 9.86923e-13 9.86923e-13 9.86923e-13 9.86923e-13 9.86923e-13 9.86923e-13 9.86923e-13 9.86923e-13 9.86923e-13 9.86923e-13 9.86923e-13
          9.86923e-13 9.86923e-13 9.86923e-13 9.86923e-13 9.86923e-13 9.86923e-13 9.86923e-13 9.86923e-13 9.86923e-13 9.86923e-13 9.86923e-13 9.86923e-13
          9.86923e-13 9.86923e-13 9.86923e-13 9.86923e-13 9.86923e-13 9.86923e-13 9.86923e-13 9.86923e-13 9.86923e-13 9.86923e-13 9.86923e-13 9.86923e-13
          9.86923e-13 9.86923e-13 9.86923e-13 9.86923e-13 9.86923e-13 9.86923e-13 9.86923e-13 9.86923e-13 9.86923e-13 9.86923e-13 9.86923e-13 9.86923e-13
          9.86923e-13 9.86923e-13 9.86923e-13 9.86923e-13 9.86923e-13 9.86923e-13 9.86923e-13 9.86923e-13 9.86923e-13 9.86923e-13 9.86923e-13 9.86923e-13
          9.86923e-13 9.86923e-13 9.86923e-13 9.86923e-13 9.86923e-13 9.86923e-13 9.86923e-13 9.86923e-13 9.86923e-13 9.86923e-13 9.86923e-13 9.86923e-13
          9.86923e-13 9.86923e-13 9.86923e-13 9.86923e-13 9.86923e-13 9.86923e-13 9.86923e-13 9.86923e-13 9.86923e-13 9.86923e-13 9.86923e-13 9.86923e-13
          9.86923e-13 9.86923e-13 9.86923e-13 9.86923e-13 9.86923e-13 9.86923e-13 9.86923e-13 9.86923e-13 9.86923e-13 9.86923e-13 9.86923e-13 9.86923e-13
          9.86923e-13 9.86923e-13 9.86923e-13 9.86923e-13 9.86923e-13 9.86923e-13 9.86923e-13 9.86923e-13 9.86923e-13 9.86923e-13 9.86923e-13 9.86923e-13
          9.86923e-13 9.86923e-13 9.86923e-13 9.86923e-13 9.86923e-13 9.86923e-13 9.86923e-13 9.86923e-13 9.86923e-13 9.86923e-13 9.86923e-13 9.86923e-13
          9.86923e-13 9.86923e-13 9.86923e-13 9.86923e-13 9.86923e-13 9.86923e-13 9.86923e-13 9.86923e-13 9.86923e-13 9.86923e-13 9.86923e-13 9.86923e-13
          9.86923e-13 9.86923e-13 9.86923e-13 9.86923e-13 9.86923e-13 9.86923e-13 9.86923e-13 9.86923e-13 9.86923e-13 9.86923e-13 9.86923e-13 9.86923e-13
          9.86923e-13 9.86923e-13 9.86923e-13 9.86923e-13 9.86923e-13 9.86923e-13 9.86923e-13 9.86923e-13 9.86923e-13 9.86923e-13 9.86923e-13 9.86923e-13
          9.86923e-13 9.86923e-13 9.86923e-13 9.86923e-13 9.86923e-13 9.86923e-13 9.86923e-13 9.86923e-13 9.86923e-13 9.86923e-13 9.86923e-13 9.86923e-13
          9.86923e-13 9.86923e-13 9.86923e-13 9.86923e-13 9.86923e-13 9.86923e-13 9.86923e-13 9.86923e-13 9.86923e-13 9.86923e-13 9.86923e-13 9.86923e-13
        </DataArray>
        <DataArray type="Float32" Name="ReservoirDist" NumberOfComponents="1" format="ascii">
          45.25 45.25 45.25 45.25 45.25 45.25 45.25 45.25 45.25 45.25 45.25 45.25
          45.25 45.25 45.25 45.25 45.25 45.25 45.25 45.25 45.25 45.25 45.25 45.25
          45.25 45.25 45.25 45.25 45.25 45.25 45.25 45.25 45.25 45.25 45.25 45.25
          45.25 45.25 45.25 45.25 45.25 45.25 45.25 45.25 45.25 45.25 45.25 45.25
          45.25 45.25 45.25 45.25 45.25 45.25 45.25 45.25 45.25 45.25 45.25 45.25
          45.25 45.25 45.25 45.25 45.25 45.25 45.25 45.25 45.25 45.25 45.25 45.25
          45.25 45.25 45.25 45.25 45.25 45.25 45.25 45.25 45.25 45.25 45.25 45.25
          45.25 45.25 45.25 45.25 45.25 45.25 45.25 45.25 45.25 45.25 45.25 45.25
          45.25 45.25 45.25 45.25 45.25 45.25 45.25 45.25 45.25 45.25 45.25 45.25
          45.25 45.25 45.25 45.25 45.25 45.25 45.25 45.25 45.25 45.25 45.25 45.25
          45.25 45.25 45.25 45.25 45.25 45.25 45.25 45.25 45.25 45.25 45.25 45.25
          45.25 45.25 45.25 45.25 45.25 45.25 45.25 45.25 45.25 45.25 45.25 45.25
          45.25 45.25 45.25 45.25 45.25 45.25 45.25 45.25 45.25 45.25 45.25 45.25
          45.25 45.25 45.25 45.25 45.25 45.25 45.25 45.25 45.25 45.25 45.25 45.25
          45.25 45.25 45.25 45.25 45.25 45.25 45.25 45.25 45.25 45.25 45.25 45.25
          45.25 45.25 45.25 45.25 45.25 45.25 45.25 45.25 45.25 45.25 45.25 45.25
          45.25 45.25 45.25 45.25 45.25 45.25 45.25 45.25 45.25 45.25 45.25 45.25
          45.25 45.25 45.25 45.25 45.25 45.25 45.25 45.25 45.25 45.25 45.25 45.25
          45.25 45.25 45.25 45.25 45.25 45.25 45.25 45.25 45.25 45.25 45.25 45.25
          45.25 45.25 45.25 45.25 45.25 45.25 45.25 45.25 45.25 45.25 45.25 45.25
          45.25 45.25 45.25 45.25 45.25 45.25 45.25 45.25 45.25 45.25 45.25 45.25
          45.25 45.25 45.25 45.25 45.25 45.25 45.25 45.25 45.25 45.25 45.25 45.25
          45.25 45.25 45.25 45.25 45.25 45.25 45.25 45.25 45.25 45.25 45.25 45.25
          45.25 45.25 45.25 45.25 45.25 45.25 45.25 45.25 45.25 45.25 45.25 45.25
          45.25 45.25 45.25 45.25 45.25 45.25 45.25 45.25 45.25 45.25 45.25 45.25
          45.25 45.25 45.25 45.25 45.25 45.25 45.25 45.25 45.25 45.25 45.25 45.25
          45.25 45.25 45.25 45.25 45.25 45.25 45.25 45.25 45.25 45.25 45.25 45.25
          45.25 45.25 45.25 45.25 45.25 45.25 45.25 45.25 45.25 45.25 45.25 45.25
          45.25 45.25 45.25 45.25 45.25 45.25 45.25 45.25 45.25 45.25 45.25 45.25
          45.25 45.25 45.25 45.25 45.25 45.25 45.25 45.25 45.25 45.25 45.25 45.25
          45.25 45.25 45.25 45.25 45.25 45.25 45.25 45.25 45.25 45.25 45.25 45.25
          45.25 45.25 45.25 45.25 45.25 45.25 45.25 45.25 45.25 45.25 45.25 45.25
          45.25 45.25 45.25 45.25 45.25 45.25 45.25 45.25 45.25 45.25 45.25 45.25
          45.25 45.25 45.25 45.25 45.25 45.25 45.25 45.25 45.25 45.25 45.25 45.25
          45.25 45.25 45.25 45.25 45.25 45.25 45.25 45.25 45.25 45.25 45.25 45.25
          45.25 45.25 45.25 45.25 45.25 45.25 45.25 45.25 45.25 45.25 45.25 45.25
          45.25 45.25 45.25 45.25 45.25 45.25 45.25 45.25 45.25 45.25 45.25 45.25
          45.25 45.25 45.25 45.25 45.25 45.25 45.25 45.25 45.25 45.25 45.25 45.25
          45.25 45.25 45.25 45.25 45.25 45.25 45.25 45.25 45.25 45.25 45.25 45.25
          45.25 45.25 45.25 45.25 45.25 45.25 45.25 45.25 45.25 45.25 45.25 45.25
          45.25 45.25 45.25 45.25 45.25 45.25 45.25 45.25 45.25 45.25 45.25 45.25
          45.25 45.25 45.25 45.25 45.25 45.25 45.25 45.25 45.25 45.25 45.25 45.25
          45.25 45.25 45.25 45.25 45.25 45.25 45.25 45.25 45.25 45.25 45.25 45.25
          45.25 45.25 45.25 45.25 45.25 45.25 45.25 45.25 45.25 45.25 45.25 45.25
        </DataArray>
        <DataArray type="Float32" Name="ReservoirCStres" NumberOfComponents="1" format="ascii">
          5.55e+06 5.55e+06 5.55e+06 5.55e+06 5.55e+06 5.55e+06 5.55e+06 5.55e+06 5.55e+06 5.55e+06 5.55e+06 5.55e+06
          5.55e+06 5.55e+06 5.55e+06 5.55e+06 5.55e+06 5.55e+06 5.55e+06 5.55e+06 5.55e+06 5.55e+06 5.55e+06 5.55e+06
          5.55e+06 5.55e+06 5.55e+06 5.55e+06 5.55e+06 5.55e+06 5.55e+06 5.55e+06 5.55e+06 5.55e+06 5.55e+06 5.55e+06
          5.55e+06 5.55e+06 5.55e+06 5.55e+06 5.55e+06 5.55e+06 5.55e+06 5.55e+06 5.55e+06 5.55e+06 5.55e+06 5.55e+06
          5.55e+06 5.55e+06 5.55e+06 5.55e+06 5.55e+06 5.55e+06 5.55e+06 5.55e+06 5.55e+06 5.55e+06 5.55e+06 5.55e+06
          5.55e+06 5.55e+06 5.55e+06 5.55e+06 5.55e+06 5.55e+06 5.55e+06 5.55e+06 5.55e+06 5.55e+06 5.55e+06 5.55e+06
          5.55e+06 5.55e+06 5.55e+06 5.55e+06 5.55e+06 5.55e+06 5.55e+06 5.55e+06 5.55e+06 5.55e+06 5.55e+06 5.55e+06
          5.55e+06 5.55e+06 5.55e+06 5.55e+06 5.55e+06 5.55e+06 5.55e+06 5.55e+06 5.55e+06 5.55e+06 5.55e+06 5.55e+06
          5.55e+06 5.55e+06 5.55e+06 5.55e+06 5.55e+06 5.55e+06 5.55e+06 5.55e+06 5.55e+06 5.55e+06 5.55e+06 5.55e+06
          5.55e+06 5.55e+06 5.55e+06 5.55e+06 5.55e+06 5.55e+06 5.55e+06 5.55e+06 5.55e+06 5.55e+06 5.55e+06 5.55e+06
          5.55e+06 5.55e+06 5.55e+06 5.55e+06 5.55e+06 5.55e+06 5.55e+06 5.55e+06 5.55e+06 5.55e+06 5.55e+06 5.55e+06
          5.55e+06 5.55e+06 5.55e+06 5.55e+06 5.55e+06 5.55e+06 5.55e+06 5.55e+06 5.55e+06 5.55e+06 5.55e+06 5.55e+06
          5.55e+06 5.55e+06 5.55e+06 5.55e+06 5.55e+06 5.55e+06 5.55e+06 5.55e+06 5.55e+06 5.55e+06 5.55e+06 5.55e+06
          5.55e+06 5.55e+06 5.55e+06 5.55e+06 5.55e+06 5.55e+06 5.55e+06 5.55e+06 5.55e+06 5.55e+06 5.55e+06 5.55e+06
          5.55e+06 5.55e+06 5.55e+06 5.55e+06 5.55e+06 5.55e+06 5.55e+06 5.55e+06 5.55e+06 5.55e+06 5.55e+06 5.55e+06
          5.55e+06 5.55e+06 5.55e+06 5.55e+06 5.55e+06 5.55e+06 5.55e+06 5.55e+06 5.55e+06 5.55e+06 5.55e+06 5.55e+06
          5.55e+06 5.55e+06 5.55e+06 5.55e+06 5.55e+06 5.55e+06 5.55e+06 5.55e+06 5.55e+06 5.55e+06 5.55e+06 5.55e+06
          5.55e+06 5.55e+06 5.55e+06 5.55e+06 5.55e+06 5.55e+06 5.55e+06 5.55e+06 5.55e+06 5.55e+06 5.55e+06 5.55e+06
          5.55e+06 5.55e+06 5.55e+06 5.55e+06 5.55e+06 5.55e+06 5.55e+06 5.55e+06 5.55e+06 5.55e+06 5.55e+06 5.55e+06
          5.55e+06 5.55e+06 5.55e+06 5.55e+06 5.55e+06 5.55e+06 5.55e+06 5.55e+06 5.55e+06 5.55e+06 5.55e+06 5.55e+06
          5.55e+06 5.55e+06 5.55e+06 5.55e+06 5.55e+06 5.55e+06 5.55e+06 5.55e+06 5.55e+06 5.55e+06 5.55e+06 5.55e+06
          5.55e+06 5.55e+06 5.55e+06 5.55e+06 5.55e+06 5.55e+06 5.55e+06 5.55e+06 5.55e+06 5.55e+06 5.55e+06 5.55e+06
          5.55e+06 5.55e+06 5.55e+06 5.55e+06 5.55e+06 5.55e+06 5.55e+06 5.55e+06 5.55e+06 5.55e+06 5.55e+06 5.55e+06
          5.55e+06 5.55e+06 5.55e+06 5.55e+06 5.55e+06 5.55e+06 5.55e+06 5.55e+06 5.55e+06 5.55e+06 5.55e+06 5.55e+06
          5.55e+06 5.55e+06 5.55e+06 5.55e+06 5.55e+06 5.55e+06 5.55e+06 5.55e+06 5.55e+06 5.55e+06 5.55e+06 5.55e+06
          5.55e+06 5.55e+06 5.55e+06 5.55e+06 5.55e+06 5.55e+06 5.55e+06 5.55e+06 5.55e+06 5.55e+06 5.55e+06 5.55e+06
          5.55e+06 5.55e+06 5.55e+06 5.55e+06 5.55e+06 5.55e+06 5.55e+06 5.55e+06 5.55e+06 5.55e+06 5.55e+06 5.55e+06
          5.55e+06 5.55e+06 5.55e+06 5.55e+06 5.55e+06 5.55e+06 5.55e+06 5.55e+06 5.55e+06 5.55e+06 5.55e+06 5.55e+06
          5.55e+06 5.55e+06 5.55e+06 5.55e+06 5.55e+06 5.55e+06 5.55e+06 5.55e+06 5.55e+06 5.55e+06 5.55e+06 5.55e+06
          5.55e+06 5.55e+06 5.55e+06 5.55e+06 5.55e+06 5.55e+06 5.55e+06 5.55e+06 5.55e+06 5.55e+06 5.55e+06 5.55e+06
          5.55e+06 5.55e+06 5.55e+06 5.55e+06 5.55e+06 5.55e+06 5.55e+06 5.55e+06 5.55e+06 5.55e+06 5.55e+06 5.55e+06
          5.55e+06 5.55e+06 5.55e+06 5.55e+06 5.55e+06 5.55e+06 5.55e+06 5.55e+06 5.55e+06 5.55e+06 5.55e+06 5.55e+06
          5.55e+06 5.55e+06 5.55e+06 5.55e+06 5.55e+06 5.55e+06 5.55e+06 5.55e+06 5.55e+06 5.55e+06 5.55e+06 5.55e+06
          5.55e+06 5.55e+06 5.55e+06 5.55e+06 5.55e+06 5.55e+06 5.55e+06 5.55e+06 5.55e+06 5.55e+06 5.55e+06 5.55e+06
          5.55e+06 5.55e+06 5.55e+06 5.55e+06 5.55e+06 5.55e+06 5.55e+06 5.55e+06 5.55e+06 5.55e+06 5.55e+06 5.55e+06
          5.55e+06 5.55e+06 5.55e+06 5.55e+06 5.55e+06 5.55e+06 5.55e+06 5.55e+06 5.55e+06 5.55e+06 5.55e+06 5.55e+06
          5.55e+06 5.55e+06 5.55e+06 5.55e+06 5.55e+06 5.55e+06 5.55e+06 5.55e+06 5.55e+06 5.55e+06 5.55e+06 5.55e+06
          5.55e+06 5.55e+06 5.55e+06 5.55e+06 5.55e+06 5.55e+06 5.55e+06 5.55e+06 5.55e+06 5.55e+06 5.55e+06 5.55e+06
          5.55e+06 5.55e+06 5.55e+06 5.55e+06 5.55e+06 5.55e+06 5.55e+06 5.55e+06 5.55e+06 5.55e+06 5.55e+06 5.55e+06
          5.55e+06 5.55e+06 5.55e+06 5.55e+06 5.55e+06 5.55e+06 5.55e+06 5.55e+06 5.55e+06 5.55e+06 5.55e+06 5.55e+06
          5.55e+06 5.55e+06 5.55e+06 5.55e+06 5.55e+06 5.55e+06 5.55e+06 5.55e+06 5.55e+06 5.55e+06 5.55e+06 5.55e+06
          5.55e+06 5.55e+06 5.55e+06 5.55e+06 5.55e+06 5.55e+06 5.55e+06 5.55e+06 5.55e+06 5.55e+06 5.55e+06 5.55e+06
          5.55e+06 5.55e+06 5.55e+06 5.55e+06 5.55e+06 5.55e+06 5.55e+06 5.55e+06 5.55e+06 5.55e+06 5.55e+06 5.55e+06
          5.55e+06 5.55e+06 5.55e+06 5.55e+06 5.55e+06 5.55e+06 5.55e+06 5.55e+06 5.55e+06 5.55e+06 5.55e+06 5.55e+06
        </DataArray>
        <DataArray type="Float32" Name="FracturePressure" NumberOfComponents="1" format="ascii">
          2.29886e+07 2.29886e+07 2.29886e+07 2.29886e+07 2.29886e+07 2.29886e+07 2.29886e+07 2.29886e+07 2.29886e+07 2.29886e+07 2.29886e+07 2.29886e+07
          2.29886e+07 2.29886e+07 2.29886e+07 2.29886e+07 2.29886e+07 2.29886e+07 2.29886e+07 2.29886e+07 2.29886e+07 2.29886e+07 2.29886e+07 2.29886e+07
          2.29886e+07 2.29886e+07 2.29886e+07 2.29886e+07 2.29886e+07 2.29886e+07 2.29886e+07 2.29886e+07 2.29886e+07 2.29886e+07 2.29886e+07 2.29886e+07
          2.29886e+07 2.29886e+07 2.29886e+07 2.29886e+07 2.29886e+07 2.29886e+07 2.29886e+07 2.29886e+07 2.29886e+07 2.29886e+07 2.29886e+07 2.29886e+07
          2.29886e+07 2.29886e+07 2.29886e+07 2.29886e+07 2.29886e+07 2.29886e+07 2.29886e+07 2.29886e+07 2.29886e+07 2.29886e+07 2.29886e+07 2.29886e+07
          2.29886e+07 2.29886e+07 2.29886e+07 2.29886e+07 2.29886e+07 2.29886e+07 2.29886e+07 2.29886e+07 2.29886e+07 2.29886e+07 2.29886e+07 2.29886e+07
          2.29886e+07 2.29886e+07 2.29886e+07 2.29886e+07 2.29886e+07 2.29886e+07 2.29886e+07 2.29886e+07 2.29886e+07 2.29886e+07 2.29886e+07 2.29886e+07
          2.29886e+07 2.29886e+07 2.29886e+07 2.29886e+07 2.29886e+07 2.29886e+07 2.29886e+07 2.29886e+07 2.29886e+07 2.29886e+07 2.29886e+07 2.29886e+07
          2.29886e+07 2.29886e+07 2.29886e+07 2.29886e+07 2.29886e+07 2.29886e+07 2.29886e+07 2.29886e+07 2.29886e+07 2.29886e+07 2.29886e+07 2.29886e+07
          2.29886e+07 2.29886e+07 2.29886e+07 2.29886e+07 2.29886e+07 2.29886e+07 2.29886e+07 2.29886e+07 2.29886e+07 2.29886e+07 2.29886e+07 2.29886e+07
          2.29886e+07 2.29886e+07 2.29886e+07 2.29886e+07 2.29886e+07 2.29886e+07 2.29886e+07 2.29886e+07 2.29886e+07 2.29886e+07 2.29886e+07 2.29886e+07
          2.29886e+07 2.29886e+07 2.29886e+07 2.29886e+07 2.29886e+07 2.29886e+07 2.29886e+07 2.29886e+07 2.29886e+07 2.29886e+07 2.29886e+07 2.29886e+07
          2.29886e+07 2.29886e+07 2.29886e+07 2.29886e+07 2.29886e+07 2.29886e+07 2.29886e+07 2.29886e+07 2.29886e+07 2.29886e+07 2.29886e+07 2.29886e+07
          2.29886e+07 2.29886e+07 2.29886e+07 2.29886e+07 2.29886e+07 2.29886e+07 2.29886e+07 2.29886e+07 2.29886e+07 2.29886e+07 2.29886e+07 2.29886e+07
          2.29886e+07 2.29886e+07 2.29886e+07 2.29886e+07 2.29886e+07 2.29886e+07 2.29886e+07 2.29886e+07 2.29886e+07 2.29886e+07 2.29886e+07 2.29887e+07
          2.29886e+07 2.29886e+07 2.29886e+07 2.29886e+07 2.29886e+07 2.29886e+07 2.29886e+07 2.29886e+07 2.29886e+07 2.29886e+07 2.29886e+07 2.29886e+07
          2.29886e+07 2.29886e+07 2.29886e+07 2.29886e+07 2.29886e+07 2.29886e+07 2.29886e+07 2.29887e+07 2.29887e+07 2.29887e+07 2.29887e+07 2.29887e+07
          2.29886e+07 2.29886e+07 2.29886e+07 2.29886e+07 2.29886e+07 2.29886e+07 2.29886e+07 2.29886e+07 2.29886e+07 2.29886e+07 2.29886e+07 2.29886e+07
          2.29886e+07 2.29886e+07 2.29886e+07 2.29887e+07 2.29887e+07 2.29887e+07 2.29887e+07 2.29887e+07 2.29887e+07 2.29887e+07 2.29887e+07 2.29887e+07
          2.29886e+07 2.29886e+07 2.29886e+07 2.29886e+07 2.29886e+07 2.29886e+07 2.29886e+07 2.29886e+07 2.29886e+07 2.29886e+07 2.29886e+07 2.29886e+07
          2.29887e+07 2.29887e+07 2.29887e+07 2.29887e+07 2.29887e+07 2.29887e+07 2.29887e+07 2.29887e+07 2.29887e+07 2.29887e+07 2.29887e+07 2.29887e+07
          2.29886e+07 2.29886e+07 2.29886e+07 2.29886e+07 2.29886e+07 2.29886e+07 2.29886e+07 2.29886e+07 2.29886e+07 2.29886e+07 2.29886e+07 2.29886e+07
          2.29887e+07 2.29887e+07 2.29887e+07 2.29887e+07 2.29887e+07 2.29887e+07 2.29887e+07 2.29887e+07 2.29887e+07 2.29887e+07 2.29887e+07 2.29887e+07
          2.29886e+07 2.29886e+07 2.29886e+07 2.29886e+07 2.29886e+07 2.29886e+07 2.29886e+07 2.29886e+07 2.29886e+07 2.29886e+07 2.29886e+07 2.29886e+07
          2.29887e+07 2.29887e+07 2.29887e+07 2.29887e+07 2.29887e+07 2.29887e+07 2.29887e+07 2.29887e+07 2.29887e+07 2.29887e+07 2.29887e+07 2.29886e+07
          2.29886e+07 2.29886e+07 2.29886e+07 2.29886e+07 2.29886e+07 2.29886e+07 2.29886e+07 2.29886e+07 2.29886e+07 2.29886e+07 2.29886e+07 2.29886e+07
          2.29887e+07 2.29887e+07 2.29887e+07 2.29887e+07 2.29887e+07 2.29887e+07 2.29887e+07 2.29886e+07 2.29886e+07 2.29886e+07 2.29886e+07 2.29886e+07
          2.29886e+07 2.29886e+07 2.29886e+07 2.29886e+07 2.29886e+07 2.29886e+07 2.29886e+07 2.29886e+07 2.29886e+07 2.29886e+07 2.29886e+07 2.29886e+07
          2.29887e+07 2.29887e+07 2.29887e+07 2.29886e+07 2.29886e+07 2.29886e+07 2.29886e+07 2.29886e+07 2.29886e+07 2.29886e+07 2.29886e+07 2.29886e+07
          2.29886e+07 2.29886e+07 2.29886e+07 2.29886e+07 2.29886e+07 2.29886e+07 2.29886e+07 2.29886e+07 2.29886e+07 2.29886e+07 2.29886e+07 2.29886e+07
          2.29886e+07 2.29886e+07 2.29886e+07 2.29886e+07 2.29886e+07 2.29886e+07 2.29886e+07 2.29886e+07 2.29886e+07 2.29886e+07 2.29886e+07 2.29886e+07
          2.29886e+07 2.29886e+07 2.29886e+07 2.29886e+07 2.29886e+07 2.29886e+07 2.29886e+07 2.29886e+07 2.29886e+07 2.29886e+07 2.29886e+07 2.29886e+07
          2.29886e+07 2.29886e+07 2.29886e+07 2.29886e+07 2.29886e+07 2.29886e+07 2.29886e+07 2.29886e+07 2.29886e+07 2.29886e+07 2.29886e+07 2.29886e+07
          2.29886e+07 2.29886e+07 2.29886e+07 2.29886e+07 2.29886e+07 2.29886e+07 2.29886e+07 2.29886e+07 2.29886e+07 2.29886e+07 2.29886e+07 2.29886e+07
          2.29886e+07 2.29886e+07 2.29886e+07 2.29886e+07 2.29886e+07 2.29886e+07 2.29886e+07 2.29886e+07 2.29886e+07 2.29886e+07 2.29886e+07 2.29886e+07
          2.29886e+07 2.29886e+07 2.29886e+07 2.29886e+07 2.29886e+07 2.29886e+07 2.29886e+07 2.29886e+07 2.29886e+07 2.29886e+07 2.29886e+07 2.29886e+07
          2.29886e+07 2.29886e+07 2.29886e+07 2.29886e+07 2.29886e+07 2.29886e+07 2.29886e+07 2.29886e+07 2.29886e+07 2.29886e+07 2.29886e+07 2.29886e+07
          2.29886e+07 2.29886e+07 2.29886e+07 2.29886e+07 2.29886e+07 2.29886e+07 2.29886e+07 2.29886e+07 2.29886e+07 2.29886e+07 2.29886e+07 2.29886e+07
          2.29886e+07 2.29886e+07 2.29886e+07 2.29886e+07 2.29886e+07 2.29886e+07 2.29886e+07 2.29886e+07 2.29886e+07 2.29886e+07 2.29886e+07 2.29886e+07
          2.29886e+07 2.29886e+07 2.29886e+07 2.29886e+07 2.29886e+07 2.29886e+07 2.29886e+07 2.29886e+07 2.29886e+07 2.29886e+07 2.29886e+07 2.29886e+07
          2.29886e+07 2.29886e+07 2.29886e+07 2.29886e+07 2.29886e+07 2.29886e+07 2.29886e+07 2.29886e+07 2.29886e+07 2.29886e+07 2.29886e+07 2.29886e+07
          2.29886e+07 2.29886e+07 2.29886e+07 2.29886e+07 2.29886e+07 2.29886e+07 2.29886e+07 2.29886e+07 2.29886e+07 2.29886e+07 2.29886e+07 2.29886e+07
          2.29886e+07 2.29886e+07 2.29886e+07 2.29886e+07 2.29886e+07 2.29886e+07 2.29886e+07 2.29886e+07 2.29886e+07 2.29886e+07 2.29886e+07 2.29886e+07
          2.29886e+07 2.29886e+07 2.29886e+07 2.29886e+07 2.29886e+07 2.29886e+07 2.29886e+07 2.29886e+07 2.29886e+07 2.29886e+07 2.29886e+07 2.29886e+07
        </DataArray>
        <DataArray type="Float32" Name="FractureHead" NumberOfComponents="1" format="ascii">
          -110.097 -110.97 -110.751 -107.241 -108.033 -108.248 -109.071 -109.159 -109.882 -109.918 -103.884 -105.032
          -104.177 -105.018 -105.439 -106.405 -106.733 -107.59 -107.864 -108.601 -108.845 -109.478 -109.781 -100.576
          -101.822 -102.177 -103.32 -103.732 -104.776 -105.212 -106.164 -106.573 -107.404 -107.802 -108.52 -108.962
          -109.629 -110.281 -95.5443 -97.0384 -97.823 -99.3795 -99.9628 -101.322 -101.855 -103.053 -103.583 -104.655
          -105.176 -106.127 -106.646 -107.485 -108.046 -108.811 -109.535 -110.407 -111.924 -89.6747 -91.4427 -92.4197
          -94.2659 -95.0847 -96.7899 -97.5288 -99.0767 -99.7497 -101.125 -101.768 -102.99 -103.62 -104.705 -105.338
          -106.298 -106.967 -107.837 -108.706 -109.459 -82.7282 -84.8208 -86.0222 -88.2125 -89.2286 -91.2541 -92.1907
          -94.0567 -94.9173 -96.6221 -97.4243 -98.9699 -99.7367 -101.122 -101.876 -103.102 -103.862 -104.947 -105.818
          -106.675 -74.5934 -77.0269 -78.4638 -81.0419 -82.2706 -84.6771 -85.8268 -88.0509 -89.1209 -91.1474 -92.1361
          -93.9817 -94.899 -96.5957 -97.4866 -99.0296 -99.9263 -101.302 -102.299 -103.378 -65.2791 -68.0435 -69.7092
          -72.6712 -74.1053 -76.9077 -78.2644 -80.895 -82.1828 -84.6147 -85.8398 -88.0547 -89.2032 -91.187 -92.237
          -94.0255 -95.0183 -96.7064 -97.8721 -99.2279 -54.8145 -57.9044 -59.7952 -63.1285 -64.762 -67.9438 -69.4957
          -72.5168 -73.9988 -76.8355 -78.2621 -80.9071 -82.288 -84.7287 -86.0792 -88.2618 -89.5415 -91.4096 -92.6141
          -94.0724 -43.1834 -46.6096 -48.7327 -52.4393 -54.2754 -57.8294 -59.5761 -62.9723 -64.6437 -67.8594 -69.4709
          -72.5018 -74.0619 -76.9049 -78.4343 -81.0763 -82.6127 -85.0681 -86.8522 -88.8351 -91.3356 -93.1175 -30.4133
          -34.1421 -36.4742 -40.5762 -42.6292 -46.5681 -48.5218 -52.2931 -54.1603 -57.7467 -59.5473 -62.9482 -64.6922
          -67.9049 -69.6105 -72.6166 -74.3043 -77.1051 -78.9526 -81.2648 -19.1263 -21.747 -23.314 -27.5972 -29.7036
          -34.0824 -36.2722 -40.4525 -42.5459 -46.5091 -48.5137 -52.2801 -54.216 -57.7917 -59.6847 -63.0506 -64.9241
          -68.0784 -70.1276 -72.7427 -21.747 -19.1263 -17.075 -17.075 -16.0495 -20.4329 -22.2928 -27.172 -29.6331
          -34.0679 -36.3633 -40.5025 -42.6607 -46.5877 -48.6768 -52.3926 -54.457 -57.9619 -60.2234 -63.1478 -34.1421
          -30.4133 -27.5972 -23.314 -20.4329 -16.0495 -11.3766 -11.3766 -12.5401 -19.1523 -22.7406 -27.4652 -30.1111
          -34.3504 -36.6913 -40.7044 -42.9617 -46.7862 -49.2527 -52.4749 -46.6096 -43.1834 -40.5762 -36.4742 -34.0824
          -29.7036 -27.172 -22.2928 -19.1523 -12.5401 -12.2815 -12.2815 -17.4547 -21.4764 -24.4711 -28.3859 -30.8538
          -34.7822 -37.3961 -40.8319 -57.9044 -54.8145 -52.4393 -48.7327 -46.5681 -42.6292 -40.4525 -36.2722 -34.0679
          -29.6331 -27.4652 -22.7406 -21.4764 -17.4547 -19.0232 -19.0232 -21.2138 -23.6479 -25.9795 -29.0064 -68.0435
          -65.2791 -63.1285 -59.7952 -57.8294 -54.2754 -52.2931 -48.5218 -46.5091 -42.5459 -40.5025 -36.3633 -34.3504
          -30.1111 -28.3859 -24.4711 -23.6479 -21.2138 -21.4559 -21.4559 -77.0269 -74.5934 -72.6712 -69.7092 -67.9438
          -64.762 -62.9723 -59.5761 -57.7467 -54.1603 -52.2801 -48.5137 -46.5877 -42.6607 -40.7044 -36.6913 -34.7822
          -30.8538 -29.0064 -25.9795 -84.8208 -82.7282 -81.0419 -78.4638 -76.9077 -74.1053 -72.5168 -69.4957 -67.8594
          -64.6437 -62.9482 -59.5473 -57.7917 -54.216 -52.3926 -48.6768 -46.7862 -42.9617 -40.8319 -37.3961 -91.4427
          -89.6747 -88.2125 -86.0222 -84.6771 -82.2706 -80.895 -78.2644 -76.8355 -73.9988 -72.5018 -69.4709 -67.9049