<?xml version="1.0"?>
<VTKFile type="UnstructuredGrid" version="0.1" byte_order="LittleEndian">
  <UnstructuredGrid>
    <Piece NumberOfCells="180" NumberOfPoints="109">
      <CellData Scalars="ReservoirCell">
        <DataArray type="Float32" Name="ReservoirCell" NumberOfComponents="1" format="ascii">
          1875 1875 1875 1875 1875 1875 1875 1875 1875 1875 1875 1875
          1875 1875 1875 1875 1875 1875 1875 1875 1875 1875 1875 1875
          1875 1875 1875 1875 1875 1875 1875 1875 1875 1875 1875 1875
          1875 1875 1875 1875 1875 1875 1875 1875 1875 1875 1875 1875
          1875 1875 1875 1875 1875 1875 1875 1875 1875 1875 1875 1875
          1875 1875 1875 1875 1875 1875 1875 1875 1875 1875 1875 1875
          1875 1875 1875 1875 1875 1875 1875 1875 1875 1875 1875 1875
          1875 1875 1875 1875 1875 1875 1875 1875 1875 1875 1875 1875
          1875 1875 1875 1875 1875 1875 1875 1875 1875 1875 1875 1875
          1875 1875 1875 1875 1875 1875 1875 1875 1875 1875 1875 1875
          1875 1875 1875 1875 1875 1875 1875 1875 1875 1875 1875 1875
          1875 1875 1875 1875 1875 1875 1875 1875 1875 1875 1875 1875
          1875 1875 1875 1875 1875 1875 1875 1875 1875 1875 1875 1875
          1875 1875 1875 1875 1875 1875 1875 1875 1875 1875 1875 1875
          1875 1875 1875 1875 1875 1875 1875 1875 1875 1875 1875 1875
        </DataArray>
        <DataArray type="Float32" Name="ReservoirPerm" NumberOfComponents="1" format="ascii">
          9.86923e-13 9.86923e-13 9.86923e-13 9.86923e-13 9.86923e-13 9.86923e-13 9.86923e-13 9.86923e-13 9.86923e-13 9.86923e-13 9.86923e-13 9.86923e-13
          9.86923e-13 9.86923e-13 9.86923e-13 9.86923e-13 9.86923e-13 9.86923e-13 9.86923e-13 9.86923e-13 9.86923e-13 9.86923e-13 9.86923e-13 9.86923e-13
          9.86923e-13 9.86923e-13 9.86923e-13 9.86923e-13 9.86923e-13 9.86923e-13 9.86923e-13 9.86923e-13 9.86923e-13 9.86923e-13 9.86923e-13 9.86923e-13
          9.86923e-13 9.86923e-13 9.86923e-13 9.86923e-13 9.86923e-13 9.86923e-13 9.86923e-13 9.86923e-13 9.86923e-13 9.86923e-13 9.86923e-13 9.86923e-13
          9.86923e-13 9.86923e-13 9.86923e-13 9.86923e-13 9.86923e-13 9.86923e-13 9.86923e-13 9.86923e-13 9.86923e-13 9.86923e-13 9.86923e-13 9.86923e-13
          9.86923e-13 9.86923e-13 9.86923e-13 9.86923e-13 9.86923e-13 9.86923e-13 9.86923e-13 9.86923e-13 9.86923e-13 9.86923e-13 9.86923e-13 9.86923e-13
          9.86923e-13 9.86923e-13 9.86923e-13 9.86923e-13 9.86923e-13 9.86923e-13 9.86923e-13 9.86923e-13 9.86923e-13 9.86923e-13 9.86923e-13 9.86923e-13
          9.86923e-13 9.86923e-13 9.86923e-13 9.86923e-13 9.86923e-13 9.86923e-13 9.86923e-13 9.86923e-13 9.86923e-13 9.86923e-13 9.86923e-13 9.86923e-13
          9.86923e-13 9.86923e-13 9.86923e-13 9.86923e-13 9.86923e-13 9.86923e-13 9.86923e-13 9.86923e-13 9.86923e-13 9.86923e-13 9.86923e-13 9.86923e-13
          9.86923e-13 9.86923e-13 9.86923e-13 9.86923e-13 9.86923e-13 9.86923e-13 9.86923e-13 9.86923e-13 9.86923e-13 9.86923e-13 9.86923e-13 9.86923e-13
          9.86923e-13 9.86923e-13 9.86923e-13 9.86923e-13 9.86923e-13 9.86923e-13 9.86923e-13 9.86923e-13 9.86923e-13 9.86923e-13 9.86923e-13 9.86923e-13
          9.86923e-13 9.86923e-13 9.86923e-13 9.86923e-13 9.86923e-13 9.86923e-13 9.86923e-13 9.86923e-13 9.86923e-13 9.86923e-13 9.86923e-13 9.86923e-13
          9.86923e-13 9.86923e-13 9.86923e-13 9.86923e-13 9.86923e-13 9.86923e-13 9.86923e-13 9.86923e-13 9.86923e-13 9.86923e-13 9.86923e-13 9.86923e-13
          9.86923e-13 9.86923e-13 9.86923e-13 9.86923e-13 9.86923e-13 9.86923e-13 9.86923e-13 9.86923e-13 9.86923e-13 9.86923e-13 9.86923e-13 9.86923e-13
          9.86923e-13 9.86923e-13 9.86923e-13 9.86923e-13 9.86923e-13 9.86923e-13 9.86923e-13 9.86923e-13 9.86923e-13 9.86923e-13 9.86923e-13 9.86923e-13
        </DataArray>
        <DataArray type="Float32" Name="ReservoirDist" NumberOfComponents="1" format="ascii">
          45.25 45.25 45.25 45.25 45.25 45.25 45.25 45.25 45.25 45.25 45.25 45.25
          45.25 45.25 45.25 45.25 45.25 45.25 45.25 45.25 45.25 45.25 45.25 45.25
          45.25 45.25 45.25 45.25 45.25 45.25 45.25 45.25 45.25 45.25 45.25 45.25
          45.25 45.25 45.25 45.25 45.25 45.25 45.25 45.25 45.25 45.25 45.25 45.25
          45.25 45.25 45.25 45.25 45.25 45.25 45.25 45.25 45.25 45.25 45.25 45.25
          45.25 45.25 45.25 45.25 45.25 45.25 45.25 45.25 45.25 45.25 45.25 45.25
          45.25 45.25 45.25 45.25 45.25 45.25 45.25 45.25 45.25 45.25 45.25 45.25
          45.25 45.25 45.25 45.25 45.25 45.25 45.25 45.25 45.25 45.25 45.25 45.25
          45.25 45.25 45.25 45.25 45.25 45.25 45.25 45.25 45.25 45.25 45.25 45.25
          45.25 45.25 45.25 45.25 45.25 45.25 45.25 45.25 45.25 45.25 45.25 45.25
          45.25 45.25 45.25 45.25 45.25 45.25 45.25 45.25 45.25 45.25 45.25 45.25
          45.25 45.25 45.25 45.25 45.25 45.25 45.25 45.25 45.25 45.25 45.25 45.25
          45.25 45.25 45.25 45.25 45.25 45.25 45.25 45.25 45.25 45.25 45.25 45.25
          45.25 45.25 45.25 45.25 45.25 45.25 45.25 45.25 45.25 45.25 45.25 45.25
          45.25 45.25 45.25 45.25 45.25 45.25 45.25 45.25 45.25 45.25 45.25 45.25
        </DataArray>
        <DataArray type="Float32" Name="ReservoirCStres" NumberOfComponents="1" format="ascii">
          5.55e+06 5.55e+06 5.55e+06 5.55e+06 5.55e+06 5.55e+06 5.55e+06 5.55e+06 5.55e+06 5.55e+06 5.55e+06 5.55e+06
          5.55e+06 5.55e+06 5.55e+06 5.55e+06 5.55e+06 5.55e+06 5.55e+06 5.55e+06 5.55e+06 5.55e+06 5.55e+06 5.55e+06
          5.55e+06 5.55e+06 5.55e+06 5.55e+06 5.55e+06 5.55e+06 5.55e+06 5.55e+06 5.55e+06 5.55e+06 5.55e+06 5.55e+06
          5.55e+06 5.55e+06 5.55e+06 5.55e+06 5.55e+06 5.55e+06 5.55e+06 5.55e+06 5.55e+06 5.55e+06 5.55e+06 5.55e+06
          5.55e+06 5.55e+06 5.55e+06 5.55e+06 5.55e+06 5.55e+06 5.55e+06 5.55e+06 5.55e+06 5.55e+06 5.55e+06 5.55e+06
          5.55e+06 5.55e+06 5.55e+06 5.55e+06 5.55e+06 5.55e+06 5.55e+06 5.55e+06 5.55e+06 5.55e+06 5.55e+06 5.55e+06
          5.55e+06 5.55e+06 5.55e+06 5.55e+06 5.55e+06 5.55e+06 5.55e+06 5.55e+06 5.55e+06 5.55e+06 5.55e+06 5.55e+06
          5.55e+06 5.55e+06 5.55e+06 5.55e+06 5.55e+06 5.55e+06 5.55e+06 5.55e+06 5.55e+06 5.55e+06 5.55e+06 5.55e+06
          5.55e+06 5.55e+06 5.55e+06 5.55e+06 5.55e+06 5.55e+06 5.55e+06 5.55e+06 5.55e+06 5.55e+06 5.55e+06 5.55e+06
          5.55e+06 5.55e+06 5.55e+06 5.55e+06 5.55e+06 5.55e+06 5.55e+06 5.55e+06 5.55e+06 5.55e+06 5.55e+06 5.55e+06
          5.55e+06 5.55e+06 5.55e+06 5.55e+06 5.55e+06 5.55e+06 5.55e+06 5.55e+06 5.55e+06 5.55e+06 5.55e+06 5.55e+06
          5.55e+06 5.55e+06 5.55e+06 5.55e+06 5.55e+06 5.55e+06 5.55e+06 5.55e+06 5.55e+06 5.55e+06 5.55e+06 5.55e+06
          5.55e+06 5.55e+06 5.55e+06 5.55e+06 5.55e+06 5.55e+06 5.55e+06 5.55e+06 5.55e+06 5.55e+06 5.55e+06 5.55e+06
          5.55e+06 5.55e+06 5.55e+06 5.55e+06 5.55e+06 5.55e+06 5.55e+06 5.55e+06 5.55e+06 5.55e+06 5.55e+06 5.55e+06
          5.55e+06 5.55e+06 5.55e+06 5.55e+06 5.55e+06 5.55e+06 5.55e+06 5.55e+06 5.55e+06 5.55e+06 5.55e+06 5.55e+06
        </DataArray>
        <DataArray type="Float32" Name="FracturePressure" NumberOfComponents="1" format="ascii">
          2.26039e+07 2.2588e+07 2.25968e+07 2.25831e+07 2.25941e+07 2.26424e+07 2.26424e+07 2.26706e+07 2.26455e+07 2.26956e+07 2.26496e+07 2.26907e+07
          2.26357e+07 2.26559e+07 2.26228e+07 2.26179e+07 2.2588e+07 2.26039e+07 2.26455e+07 2.26706e+07 2.27591e+07 2.27591e+07 2.2889e+07 2.2829e+07
          2.29485e+07 2.2824e+07 2.28792e+07 2.27444e+07 2.27395e+07 2.26461e+07 2.26161e+07 2.25696e+07 2.25488e+07 2.25831e+07 2.25968e+07 2.26496e+07
          2.26956e+07 2.2829e+07 2.2889e+07 2.31292e+07 2.31292e+07 2.34356e+07 2.32468e+07 2.34307e+07 2.31194e+07 2.31145e+07 2.28694e+07 2.28044e+07
          2.26662e+07 2.26153e+07 2.25576e+07 2.2539e+07 2.25941e+07 2.26357e+07 2.26907e+07 2.2824e+07 2.29485e+07 2.32468e+07 2.34356e+07 2.40174e+07
          2.40174e+07 2.47242e+07 2.40125e+07 2.40076e+07 2.34209e+07 2.32272e+07 2.2924e+07 2.27946e+07 2.26564e+07 2.25965e+07 2.255e+07 2.26228e+07
          2.26559e+07 2.27444e+07 2.28792e+07 2.31194e+07 2.34307e+07 2.40125e+07 2.47242e+07 2.63142e+07 2.63142e+07 2.63093e+07 2.47144e+07 2.39978e+07
          2.34111e+07 2.30949e+07 2.28498e+07 2.27101e+07 2.26166e+07 2.25786e+07 2.26179e+07 2.26461e+07 2.27395e+07 2.28694e+07 2.31145e+07 2.34209e+07
          2.40076e+07 2.47144e+07 2.63093e+07 2.63044e+07 2.63044e+07 2.47046e+07 2.39929e+07 2.34013e+07 2.309e+07 2.284e+07 2.27052e+07 2.26068e+07
          2.25737e+07 2.25696e+07 2.26161e+07 2.26662e+07 2.28044e+07 2.2924e+07 2.32272e+07 2.34111e+07 2.39978e+07 2.39929e+07 2.47046e+07 2.3988e+07
          2.3988e+07 2.33964e+07 2.32076e+07 2.28994e+07 2.2775e+07 2.26319e+07 2.25769e+07 2.25255e+07 2.25488e+07 2.25576e+07 2.26153e+07 2.26564e+07
          2.27946e+07 2.28498e+07 2.30949e+07 2.309e+07 2.34013e+07 2.32076e+07 2.33964e+07 2.30802e+07 2.30802e+07 2.28302e+07 2.27701e+07 2.2627e+07
          2.2581e+07 2.25183e+07 2.25047e+07 2.2539e+07 2.255e+07 2.25965e+07 2.26166e+07 2.27101e+07 2.27052e+07 2.284e+07 2.2775e+07 2.28994e+07
          2.27701e+07 2.28302e+07 2.26905e+07 2.26905e+07 2.25921e+07 2.2567e+07 2.25157e+07 2.24998e+07 2.25786e+07 2.25737e+07 2.26068e+07 2.25769e+07
          2.26319e+07 2.2581e+07 2.2627e+07 2.2567e+07 2.25921e+07 2.25541e+07 2.25541e+07 2.25255e+07 2.25047e+07 2.25183e+07 2.24998e+07 2.25157e+07
        </DataArray>
        <DataArray type="Float32" Name="FractureHead" NumberOfComponents="1" format="ascii">
          -3.75017e+06 -3.76606e+06 -3.75241e+06 -3.76606e+06 -3.75017e+06 -3.71173e+06 -3.71173e+06 -3.67863e+06 -3.7037e+06 -3.64868e+06 -3.69466e+06 -3.64868e+06
          -3.7037e+06 -3.67863e+06 -3.71173e+06 -3.71173e+06 -3.76606e+06 -3.75017e+06 -3.7037e+06 -3.67863e+06 -3.58519e+06 -3.58519e+06 -3.45038e+06 -3.51045e+06
          -3.38601e+06 -3.51045e+06 -3.45038e+06 -3.58519e+06 -3.58519e+06 -3.67863e+06 -3.7037e+06 -3.75017e+06 -3.76606e+06 -3.76606e+06 -3.75241e+06 -3.69466e+06
          -3.64868e+06 -3.51045e+06 -3.45038e+06 -3.2053e+06 -3.2053e+06 -2.89398e+06 -3.08274e+06 -2.89398e+06 -3.2053e+06 -3.2053e+06 -3.45038e+06 -3.51045e+06
          -3.64868e+06 -3.69466e+06 -3.75241e+06 -3.76606e+06 -3.75017e+06 -3.7037e+06 -3.64868e+06 -3.51045e+06 -3.38601e+06 -3.08274e+06 -2.89398e+06 -2.30729e+06
          -2.30729e+06 -1.59561e+06 -2.30729e+06 -2.30729e+06 -2.89398e+06 -3.08274e+06 -3.38601e+06 -3.51045e+06 -3.64868e+06 -3.7037e+06 -3.75017e+06 -3.71173e+06
          -3.67863e+06 -3.58519e+06 -3.45038e+06 -3.2053e+06 -2.89398e+06 -2.30729e+06 -1.59561e+06 -681.454 -681.454 -681.454 -1.59561e+06 -2.30729e+06
          -2.89398e+06 -3.2053e+06 -3.45038e+06 -3.58519e+06 -3.67863e+06 -3.71173e+06 -3.71173e+06 -3.67863e+06 -3.58519e+06 -3.45038e+06 -3.2053e+06 -2.89398e+06
          -2.30729e+06 -1.59561e+06 -681.454 -681.454 -681.454 -1.59561e+06 -2.30729e+06 -2.89398e+06 -3.2053e+06 -3.45038e+06 -3.58519e+06 -3.67863e+06
          -3.71173e+06 -3.75017e+06 -3.7037e+06 -3.64868e+06 -3.51045e+06 -3.38601e+06 -3.08274e+06 -2.89398e+06 -2.30729e+06 -2.30729e+06 -1.59561e+06 -2.30729e+06
          -2.30729e+06 -2.89398e+06 -3.08274e+06 -3.38601e+06 -3.51045e+06 -3.64868e+06 -3.7037e+06 -3.75017e+06 -3.76606e+06 -3.75241e+06 -3.69466e+06 -3.64868e+06
          -3.51045e+06 -3.45038e+06 -3.2053e+06 -3.2053e+06 -2.89398e+06 -3.08274e+06 -2.89398e+06 -3.2053e+06 -3.2053e+06 -3.45038e+06 -3.51045e+06 -3.64868e+06
          -3.69466e+06 -3.75241e+06 -3.76606e+06 -3.76606e+06 -3.75017e+06 -3.7037e+06 -3.67863e+06 -3.58519e+06 -3.58519e+06 -3.45038e+06 -3.51045e+06 -3.38601e+06
          -3.51045e+06 -3.45038e+06 -3.58519e+06 -3.58519e+06 -3.67863e+06 -3.7037e+06 -3.75017e+06 -3.76606e+06 -3.71173e+06 -3.71173e+06 -3.67863e+06 -3.7037e+06
          -3.64868e+06 -3.69466e+06 -3.64868e+06 -3.7037e+06 -3.67863e+06 -3.71173e+06 -3.71173e+06 -3.75017e+06 -3.76606e+06 -3.75241e+06 -3.76606e+06 -3.75017e+06
        </DataArray>
        <DataArray type="Float32" Name="ReservoirPressure" NumberOfComponents="1" format="ascii">
          2.20924e+07 2.20924e+07 2.20924e+07 2.20924e+07 2.20924e+07 2.20924e+07 2.20924e+07 2.20924e+07 2.20924e+07 2.20924e+07 2.20924e+07 2.20924e+07
          2.20924e+07 2.20924e+07 2.20924e+07 2.20924e+07 2.20924e+07 2.20924e+07 2.20924e+07 2.20924e+07 2.20924e+07 2.20924e+07 2.20924e+07 2.20924e+07
          2.20924e+07 2.20924e+07 2.20924e+07 2.20924e+07 2.20924e+07 2.20924e+07 2.20924e+07 2.20924e+07 2.20924e+07 2.20924e+07 2.20924e+07 2.20924e+07
          2.20924e+07 2.20924e+07 2.20924e+07 2.20924e+07 2.20924e+07 2.20924e+07 2.20924e+07 2.20924e+07 2.20924e+07 2.20924e+07 2.20924e+07 2.20924e+07
          2.20924e+07 2.20924e+07 2.20924e+07 2.20924e+07 2.20924e+07 2.20924e+07 2.20924e+07 2.20924e+07 2.20924e+07 2.20924e+07 2.20924e+07 2.20924e+07
          2.20924e+07 2.20924e+07 2.20924e+07 2.20924e+07 2.20924e+07 2.20924e+07 2.20924e+07 2.20924e+07 2.20924e+07 2.20924e+07 2.20924e+07 2.20924e+07
          2.20924e+07 2.20924e+07 2.20924e+07 2.20924e+07 2.20924e+07 2.20924e+07 2.20924e+07 2.20924e+07 2.20924e+07 2.20924e+07 2.20924e+07 2.20924e+07
          2.20924e+07 2.20924e+07 2.20924e+07 2.20924e+07 2.20924e+07 2.20924e+07 2.20924e+07 2.20924e+07 2.20924e+07 2.20924e+07 2.20924e+07 2.20924e+07
          2.20924e+07 2.20924e+07 2.20924e+07 2.20924e+07 2.20924e+07 2.20924e+07 2.20924e+07 2.20924e+07 2.20924e+07 2.20924e+07 2.20924e+07 2.20924e+07
          2.20924e+07 2.20924e+07 2.20924e+07 2.20924e+07 2.20924e+07 2.20924e+07 2.20924e+07 2.20924e+07 2.20924e+07 2.20924e+07 2.20924e+07 2.20924e+07
          2.20924e+07 2.20924e+07 2.20924e+07 2.20924e+07 2.20924e+07 2.20924e+07 2.20924e+07 2.20924e+07 2.20924e+07 2.20924e+07 2.20924e+07 2.20924e+07
          2.20924e+07 2.20924e+07 2.20924e+07 2.20924e+07 2.20924e+07 2.20924e+07 2.20924e+07 2.20924e+07 2.20924e+07 2.20924e+07 2.20924e+07 2.20924e+07
          2.20924e+07 2.20924e+07 2.20924e+07 2.20924e+07 2.20924e+07 2.20924e+07 2.20924e+07 2.20924e+07 2.20924e+07 2.20924e+07 2.20924e+07 2.20924e+07
          2.20924e+07 2.20924e+07 2.20924e+07 2.20924e+07 2.20924e+07 2.20924e+07 2.20924e+07 2.20924e+07 2.20924e+07 2.20924e+07 2.20924e+07 2.20924e+07
          2.20924e+07 2.20924e+07 2.20924e+07 2.20924e+07 2.20924e+07 2.20924e+07 2.20924e+07 2.20924e+07 2.20924e+07 2.20924e+07 2.20924e+07 2.20924e+07
        </DataArray>
        <DataArray type="Float32" Name="LeakofDP" NumberOfComponents="1" format="ascii">
          467414 451526 465181 451526 467414 505860 505860 538959 513887 568911 522929 568911
          513887 538959 505860 505860 451526 467414 513887 538959 632395 632395 767210 707142
          831573 707142 767210 632395 632395 538959 513887 467414 451526 451526 465181 522929
          568911 707142 767210 1.01229e+06 1.01229e+06 1.32361e+06 1.13485e+06 1.32361e+06 1.01229e+06 1.01229e+06 767210 707142
          568911 522929 465181 451526 467414 513887 568911 707142 831573 1.13485e+06 1.32361e+06 1.9103e+06
          1.9103e+06 2.62198e+06 1.9103e+06 1.9103e+06 1.32361e+06 1.13485e+06 831573 707142 568911 513887 467414 505860
          538959 632395 767210 1.01229e+06 1.32361e+06 1.9103e+06 2.62198e+06 4.21691e+06 4.21691e+06 4.21691e+06 2.62198e+06 1.9103e+06
          1.32361e+06 1.01229e+06 767210 632395 538959 505860 505860 538959 632395 767210 1.01229e+06 1.32361e+06
          1.9103e+06 2.62198e+06 4.21691e+06 4.21691e+06 4.21691e+06 2.62198e+06 1.9103e+06 1.32361e+06 1.01229e+06 767210 632395 538959
          505860 467414 513887 568911 707142 831573 1.13485e+06 1.32361e+06 1.9103e+06 1.9103e+06 2.62198e+06 1.9103e+06
          1.9103e+06 1.32361e+06 1.13485e+06 831573 707142 568911 513887 467414 451526 465181 522929 568911
          707142 767210 1.01229e+06 1.01229e+06 1.32361e+06 1.13485e+06 1.32361e+06 1.01229e+06 1.01229e+06 767210 707142 568911
          522929 465181 451526 451526 467414 513887 538959 632395 632395 767210 707142 831573
          707142 767210 632395 632395 538959 513887 467414 451526 505860 505860 538959 513887
          568911 522929 568911 513887 538959 505860 505860 467414 451526 465181 451526 467414
        </DataArray>
        <DataArray type="Float32" Name="FilterCakeThickness" NumberOfComponents="1" format="ascii">
          0 0 0 0 0 0 0 0 0 0 0 0
          0 0 0 0 0 0 0 0 0 0 0 0
          0 0 0 0 0 0 0 0 0 0 0 0
          0 0 0 0 0 0 0 0 0 0 0 0
          0 0 0 0 0 0 0 0 0 0 0 0
          0 0 0 0 0 0 0 0 0 0 0 0
          0 0 0 0 0 0 0 0 0 0 0 0
          0 0 0 0 0 0 0 0 0 0 0 0
          0 0 0 0 0 0 0 0 0 0 0 0
          0 0 0 0 0 0 0 0 0 0 0 0
          0 0 0 0 0 0 0 0 0 0 0 0
          0 0 0 0 0 0 0 0 0 0 0 0
          0 0 0 0 0 0 0 0 0 0 0 0
          0 0 0 0 0 0 0 0 0 0 0 0
          0 0 0 0 0 0 0 0 0 0 0 0
        </DataArray>
        <DataArray type="Float32" Name="ReservoirTraction" NumberOfComponents="1" format="ascii">
          2.97877e+07 2.97877e+07 2.97877e+07 2.97877e+07 2.97877e+07 2.97877e+07 2.97877e+07 2.97877e+07 2.97877e+07 2.97877e+07 2.97877e+07 2.97877e+07
          2.97877e+07 2.97877e+07 2.97877e+07 2.97877e+07 2.97877e+07 2.97877e+07 2.97877e+07 2.97877e+07 2.97877e+07 2.97877e+07 2.97877e+07 2.97877e+07
          2.97877e+07 2.97877e+07 2.97877e+07 2.97877e+07 2.97877e+07 2.97877e+07 2.97877e+07 2.97877e+07 2.97877e+07 2.97877e+07 2.97877e+07 2.97877e+07
          2.97877e+07 2.97877e+07 2.97877e+07 2.97877e+07 2.97877e+07 2.97877e+07 2.97877e+07 2.97877e+07 2.97877e+07 2.97877e+07 2.97877e+07 2.97877e+07
          2.97877e+07 2.97877e+07 2.97877e+07 2.97877e+07 2.97877e+07 2.97877e+07 2.97877e+07 2.97877e+07 2.97877e+07 2.97877e+07 2.97877e+07 2.97877e+07
          2.97877e+07 2.97877e+07 2.97877e+07 2.97877e+07 2.97877e+07 2.97877e+07 2.97877e+07 2.97877e+07 2.97877e+07 2.97877e+07 2.97877e+07 2.97877e+07
          2.97877e+07 2.97877e+07 2.97877e+07 2.97877e+07 2.97877e+07 2.97877e+07 2.97877e+07 2.97877e+07 2.97877e+07 2.97877e+07 2.97877e+07 2.97877e+07
          2.97877e+07 2.97877e+07 2.97877e+07 2.97877e+07 2.97877e+07 2.97877e+07 2.97877e+07 2.97877e+07 2.97877e+07 2.97877e+07 2.97877e+07 2.97877e+07
          2.97877e+07 2.97877e+07 2.97877e+07 2.97877e+07 2.97877e+07 2.97877e+07 2.97877e+07 2.97877e+07 2.97877e+07 2.97877e+07 2.97877e+07 2.97877e+07
          2.97877e+07 2.97877e+07 2.97877e+07 2.97877e+07 2.97877e+07 2.97877e+07 2.97877e+07 2.97877e+07 2.97877e+07 2.97877e+07 2.97877e+07 2.97877e+07
          2.97877e+07 2.97877e+07 2.97877e+07 2.97877e+07 2.97877e+07 2.97877e+07 2.97877e+07 2.97877e+07 2.97877e+07 2.97877e+07 2.97877e+07 2.97877e+07
          2.97877e+07 2.97877e+07 2.97877e+07 2.97877e+07 2.97877e+07 2.97877e+07 2.97877e+07 2.97877e+07 2.97877e+07 2.97877e+07 2.97877e+07 2.97877e+07
          2.97877e+07 2.97877e+07 2.97877e+07 2.97877e+07 2.97877e+07 2.97877e+07 2.97877e+07 2.97877e+07 2.97877e+07 2.97877e+07 2.97877e+07 2.97877e+07
          2.97877e+07 2.97877e+07 2.97877e+07 2.97877e+07 2.97877e+07 2.97877e+07 2.97877e+07 2.97877e+07 2.97877e+07 2.97877e+07 2.97877e+07 2.97877e+07
          2.97877e+07 2.97877e+07 2.97877e+07 2.97877e+07 2.97877e+07 2.97877e+07 2.97877e+07 2.97877e+07 2.97877e+07 2.97877e+07 2.97877e+07 2.97877e+07
        </DataArray>
        <DataArray type="Float32" Name="FractureForce" NumberOfComponents="1" format="ascii">
          7.18376e+06 7.19965e+06 7.1909e+06 7.20455e+06 7.19356e+06 7.14531e+06 7.14531e+06 7.11712e+06 7.14219e+06 7.09207e+06 7.13805e+06 7.09697e+06
          7.152e+06 7.13183e+06 7.16493e+06 7.16983e+06 7.19965e+06 7.18376e+06 7.14219e+06 7.11712e+06 7.02858e+06 7.02858e+06 6.89867e+06 6.95874e+06
          6.83921e+06 6.96364e+06 6.90848e+06 7.04329e+06 7.0482e+06 7.14163e+06 7.17161e+06 7.21808e+06 7.23887e+06 7.20455e+06 7.1909e+06 7.13805e+06
          7.09207e+06 6.95874e+06 6.89867e+06 6.65849e+06 6.65849e+06 6.35208e+06 6.54084e+06 6.35698e+06 6.6683e+06 6.6732e+06 6.91829e+06 6.98326e+06
          7.12149e+06 7.17237e+06 7.23012e+06 7.24868e+06 7.19356e+06 7.152e+06 7.09697e+06 6.96364e+06 6.83921e+06 6.54084e+06 6.35208e+06 5.77029e+06
          5.77029e+06 5.06351e+06 5.7752e+06 5.7801e+06 6.36679e+06 6.56046e+06 6.86373e+06 6.99306e+06 7.1313e+06 7.19122e+06 7.23769e+06 7.16493e+06
          7.13183e+06 7.04329e+06 6.90848e+06 6.6683e+06 6.35698e+06 5.7752e+06 5.06351e+06 3.47349e+06 3.47349e+06 3.4784e+06 5.07332e+06 5.78991e+06
          6.37659e+06 6.69282e+06 6.9379e+06 7.07762e+06 7.17105e+06 7.20906e+06 7.16983e+06 7.14163e+06 7.0482e+06 6.91829e+06 6.6732e+06 6.36679e+06
          5.7801e+06 5.07332e+06 3.4784e+06 3.4833e+06 3.4833e+06 5.08313e+06 5.79481e+06 6.3864e+06 6.69772e+06 6.94771e+06 7.08252e+06 7.18086e+06
          7.21396e+06 7.21808e+06 7.17161e+06 7.12149e+06 6.98326e+06 6.86373e+06 6.56046e+06 6.37659e+06 5.78991e+06 5.79481e+06 5.08313e+06 5.79971e+06
          5.79971e+06 6.3913e+06 6.58007e+06 6.88825e+06 7.01268e+06 7.15581e+06 7.21084e+06 7.26221e+06 7.23887e+06 7.23012e+06 7.17237e+06 7.1313e+06
          6.99306e+06 6.9379e+06 6.69282e+06 6.69772e+06 6.3864e+06 6.58007e+06 6.3913e+06 6.70753e+06 6.70753e+06 6.95751e+06 7.01758e+06 7.16071e+06
          7.2067e+06 7.26935e+06 7.283e+06 7.24868e+06 7.23769e+06 7.19122e+06 7.17105e+06 7.07762e+06 7.08252e+06 6.94771e+06 7.01268e+06 6.88825e+06
          7.01758e+06 6.95751e+06 7.09723e+06 7.09723e+06 7.19557e+06 7.22064e+06 7.27202e+06 7.28791e+06 7.20906e+06 7.21396e+06 7.18086e+06 7.21084e+06
          7.15581e+06 7.2067e+06 7.16071e+06 7.22064e+06 7.19557e+06 7.23357e+06 7.23357e+06 7.26221e+06 7.283e+06 7.26935e+06 7.28791e+06 7.27202e+06
        </DataArray>
        <DataArray type="Float32" Name="ReservoirMobility" NumberOfComponents="1" format="ascii">
          2523.6 2523.6 2523.6 2523.6 2523.6 2523.6 2523.6 2523.6 2523.6 2523.6 2523.6 2523.6
          2523.6 2523.6 2523.6 2523.6 2523.6 2523.6 2523.6 2523.6 2523.6 2523.6 2523.6 2523.6
          2523.6 2523.6 2523.6 2523.6 2523.6 2523.6 2523.6 2523.6 2523.6 2523.6 2523.6 2523.6
          2523.6 2523.6 2523.6 2523.6 2523.6 2523.6 2523.6 2523.6 2523.6 2523.6 2523.6 2523.6
          2523.6 2523.6 2523.6 2523.6 2523.6 2523.6 2523.6 2523.6 2523.6 2523.6 2523.6 2523.6
          2523.6 2523.6 2523.6 2523.6 2523.6 2523.6 2523.6 2523.6 2523.6 2523.6 2523.6 2523.6
          2523.6 2523.6 2523.6 2523.6 2523.6 2523.6 2523.6 2523.6 2523.6 2523.6 2523.6 2523.6
          2523.6 2523.6 2523.6 2523.6 2523.6 2523.6 2523.6 2523.6 2523.6 2523.6 2523.6 2523.6
          2523.6 2523.6 2523.6 2523.6 2523.6 2523.6 2523.6 2523.6 2523.6 2523.6 2523.6 2523.6
          2523.6 2523.6 2523.6 2523.6 2523.6 2523.6 2523.6 2523.6 2523.6 2523.6 2523.6 2523.6
          2523.6 2523.6 2523.6 2523.6 2523.6 2523.6 2523.6 2523.6 2523.6 2523.6 2523.6 2523.6
          2523.6 2523.6 2523.6 2523.6 2523.6 2523.6 2523.6 2523.6 2523.6 2523.6 2523.6 2523.6
          2523.6 2523.6 2523.6 2523.6 2523.6 2523.6 2523.6 2523.6 2523.6 2523.6 2523.6 2523.6
          2523.6 2523.6 2523.6 2523.6 2523.6 2523.6 2523.6 2523.6 2523.6 2523.6 2523.6 2523.6
          2523.6 2523.6 2523.6 2523.6 2523.6 2523.6 2523.6 2523.6 2523.6 2523.6 2523.6 2523.6
        </DataArray>
        <DataArray type="Float32" Name="LeakOfRate" NumberOfComponents="1" format="ascii">
          2.57269e-05 2.48523e-05 2.56039e-05 2.48523e-05 2.57269e-05 2.78429e-05 2.78429e-05 2.96647e-05 2.82847e-05 3.13133e-05 2.87824e-05 3.13133e-05
          2.82847e-05 2.96647e-05 2.78429e-05 2.78429e-05 2.48523e-05 2.57269e-05 2.82847e-05 2.96647e-05 3.48076e-05 3.48076e-05 4.22279e-05 3.89217e-05
          4.57705e-05 3.89217e-05 4.22279e-05 3.48076e-05 3.48076e-05 2.96647e-05 2.82847e-05 2.57269e-05 2.48523e-05 2.48523e-05 2.56039e-05 2.87824e-05
          3.13133e-05 3.89217e-05 4.22279e-05 5.57174e-05 5.57174e-05 7.28527e-05 6.24629e-05 7.28527e-05 5.57174e-05 5.57174e-05 4.22279e-05 3.89217e-05
          3.13133e-05 2.87824e-05 2.56039e-05 2.48523e-05 2.57269e-05 2.82847e-05 3.13133e-05 3.89217e-05 4.57705e-05 6.24629e-05 7.28527e-05 0.000105144
          0.000105144 0.000144316 0.000105144 0.000105144 7.28527e-05 6.24629e-05 4.57705e-05 3.89217e-05 3.13133e-05 2.82847e-05 2.57269e-05 2.78429e-05
          2.96647e-05 3.48076e-05 4.22279e-05 5.57174e-05 7.28527e-05 0.000105144 0.000144316 0.000232102 0.000232102 0.000232102 0.000144316 0.000105144
          7.28527e-05 5.57174e-05 4.22279e-05 3.48076e-05 2.96647e-05 2.78429e-05 2.78429e-05 2.96647e-05 3.48076e-05 4.22279e-05 5.57174e-05 7.28527e-05
          0.000105144 0.000144316 0.000232102 0.000232102 0.000232102 0.000144316 0.000105144 7.28527e-05 5.57174e-05 4.22279e-05 3.48076e-05 2.96647e-05
          2.78429e-05 2.57269e-05 2.82847e-05 3.13133e-05 3.89217e-05 4.57705e-05 6.24629e-05 7.28527e-05 0.000105144 0.000105144 0.000144316 0.000105144
          0.000105144 7.28527e-05 6.24629e-05 4.57705e-05 3.89217e-05 3.13133e-05 2.82847e-05 2.57269e-05 2.48523e-05 2.56039e-05 2.87824e-05 3.13133e-05
          3.89217e-05 4.22279e-05 5.57174e-05 5.57174e-05 7.28527e-05 6.24629e-05 7.28527e-05 5.57174e-05 5.57174e-05 4.22279e-05 3.89217e-05 3.13133e-05
          2.87824e-05 2.56039e-05 2.48523e-05 2.48523e-05 2.57269e-05 2.82847e-05 2.96647e-05 3.48076e-05 3.48076e-05 4.22279e-05 3.89217e-05 4.57705e-05
          3.89217e-05 4.22279e-05 3.48076e-05 3.48076e-05 2.96647e-05 2.82847e-05 2.57269e-05 2.48523e-05 2.78429e-05 2.78429e-05 2.96647e-05 2.82847e-05
          3.13133e-05 2.87824e-05 3.13133e-05 2.82847e-05 2.96647e-05 2.78429e-05 2.78429e-05 2.57269e-05 2.48523e-05 2.56039e-05 2.48523e-05 2.57269e-05
        </DataArray>
        <DataArray type="Float32" Name="WellIndex" NumberOfComponents="1" format="ascii">
          3.84152e-13 3.84152e-13 3.84152e-13 3.84152e-13 3.84152e-13 3.84152e-13 3.84152e-13 3.84152e-13 3.84152e-13 3.84152e-13 3.84152e-13 3.84152e-13
          3.84152e-13 3.84152e-13 3.84152e-13 3.84152e-13 3.84152e-13 3.84152e-13 3.84152e-13 3.84152e-13 3.84152e-13 3.84152e-13 3.84152e-13 3.84152e-13
          3.84152e-13 3.84152e-13 3.84152e-13 3.84152e-13 3.84152e-13 3.84152e-13 3.84152e-13 3.84152e-13 3.84152e-13 3.84152e-13 3.84152e-13 3.84152e-13
          3.84152e-13 3.84152e-13 3.84152e-13 3.84152e-13 3.84152e-13 3.84152e-13 3.84152e-13 3.84152e-13 3.84152e-13 3.84152e-13 3.84152e-13 3.84152e-13
          3.84152e-13 3.84152e-13 3.84152e-13 3.84152e-13 3.84152e-13 3.84152e-13 3.84152e-13 3.84152e-13 3.84152e-13 3.84152e-13 3.84152e-13 3.84152e-13
          3.84152e-13 3.84152e-13 3.84152e-13 3.84152e-13 3.84152e-13 3.84152e-13 3.84152e-13 3.84152e-13 3.84152e-13 3.84152e-13 3.84152e-13 3.84152e-13
          3.84152e-13 3.84152e-13 3.84152e-13 3.84152e-13 3.84152e-13 3.84152e-13 3.84152e-13 3.84152e-13 3.84152e-13 3.84152e-13 3.84152e-13 3.84152e-13
          3.84152e-13 3.84152e-13 3.84152e-13 3.84152e-13 3.84152e-13 3.84152e-13 3.84152e-13 3.84152e-13 3.84152e-13 3.84152e-13 3.84152e-13 3.84152e-13
          3.84152e-13 3.84152e-13 3.84152e-13 3.84152e-13 3.84152e-13 3.84152e-13 3.84152e-13 3.84152e-13 3.84152e-13 3.84152e-13 3.84152e-13 3.84152e-13
          3.84152e-13 3.84152e-13 3.84152e-13 3.84152e-13 3.84152e-13 3.84152e-13 3.84152e-13 3.84152e-13 3.84152e-13 3.84152e-13 3.84152e-13 3.84152e-13
          3.84152e-13 3.84152e-13 3.84152e-13 3.84152e-13 3.84152e-13 3.84152e-13 3.84152e-13 3.84152e-13 3.84152e-13 3.84152e-13 3.84152e-13 3.84152e-13
          3.84152e-13 3.84152e-13 3.84152e-13 3.84152e-13 3.84152e-13 3.84152e-13 3.84152e-13 3.84152e-13 3.84152e-13 3.84152e-13 3.84152e-13 3.84152e-13
          3.84152e-13 3.84152e-13 3.84152e-13 3.84152e-13 3.84152e-13 3.84152e-13 3.84152e-13 3.84152e-13 3.84152e-13 3.84152e-13 3.84152e-13 3.84152e-13
          3.84152e-13 3.84152e-13 3.84152e-13 3.84152e-13 3.84152e-13 3.84152e-13 3.84152e-13 3.84152e-13 3.84152e-13 3.84152e-13 3.84152e-13 3.84152e-13
          3.84152e-13 3.84152e-13 3.84152e-13 3.84152e-13 3.84152e-13 3.84152e-13 3.84152e-13 3.84152e-13 3.84152e-13 3.84152e-13 3.84152e-13 3.84152e-13
        </DataArray>
        <DataArray type="Float32" Name="FractureWidth" NumberOfComponents="1" format="ascii">
          0 0 0 0 0 0 0 0 0 0 0 0
          0 0 0 0 0 0 0 0 0 0 0 0
          0 0 0 0 0 0 0 0 0 0 0 0
          0 0 0 0 0 0 0 0 0 0 0 0
          0 0 0 0 0 0 0 0 0 0 0 0
          0 0 0 0 0 0 0 0 0 0 0 0
          0 0 0 0 0 0 0 0 0 0 0 0
          0 0 0 0 0 0 0 0 0 0 0 0
          0 0 0 0 0 0 0 0 0 0 0 0
          0 0 0 0 0 0 0 0 0 0 0 0
          0 0 0 0 0 0 0 0 0 0 0 0
          0 0 0 0 0 0 0 0 0 0 0 0
          0 0 0 0 0 0 0 0 0 0 0 0
          0 0 0 0 0 0 0 0 0 0 0 0
          0 0 0 0 0 0 0 0 0 0 0 0
        </DataArray>
        <DataArray type="Float32" Name="FlowWidth" NumberOfComponents="1" format="ascii">
          0.0001 0.0001 0.0001 0.0001 0.0001 0.0001 0.0001 0.0001 0.0001 0.0001 0.0001 0.0001
          0.0001 0.0001 0.0001 0.0001 0.0001 0.0001 0.0001 0.0001 0.0001 0.0001 0.0001 0.0001
          0.0001 0.0001 0.0001 0.0001 0.0001 0.0001 0.0001 0.0001 0.0001 0.0001 0.0001 0.0001
          0.0001 0.0001 0.0001 0.0001 0.0001 0.0001 0.0001 0.0001 0.0001 0.0001 0.0001 0.0001
          0.0001 0.0001 0.0001 0.0001 0.0001 0.0001 0.0001 0.0001 0.0001 0.0001 0.0001 0.0001
          0.0001 0.0001 0.0001 0.0001 0.0001 0.0001 0.0001 0.0001 0.0001 0.0001 0.0001 0.0001
          0.0001 0.0001 0.0001 0.0001 0.0001 0.0001 0.0001 0.0001 0.0001 0.0001 0.0001 0.0001
          0.0001 0.0001 0.0001 0.0001 0.0001 0.0001 0.0001 0.0001 0.0001 0.0001 0.0001 0.0001
          0.0001 0.0001 0.0001 0.0001 0.0001 0.0001 0.0001 0.0001 0.0001 0.0001 0.0001 0.0001
          0.0001 0.0001 0.0001 0.0001 0.0001 0.0001 0.0001 0.0001 0.0001 0.0001 0.0001 0.0001
          0.0001 0.0001 0.0001 0.0001 0.0001 0.0001 0.0001 0.0001 0.0001 0.0001 0.0001 0.0001
          0.0001 0.0001 0.0001 0.0001 0.0001 0.0001 0.0001 0.0001 0.0001 0.0001 0.0001 0.0001
          0.0001 0.0001 0.0001 0.0001 0.0001 0.0001 0.0001 0.0001 0.0001 0.0001 0.0001 0.0001