<?xml version="1.0"?>
<VTKFile type="UnstructuredGrid" version="0.1" byte_order="LittleEndian">
  <UnstructuredGrid>
    <Piece NumberOfCells="3025" NumberOfPoints="3744">
      <PointData Vectors="disp">
        <DataArray type="Float32" Name="disp" NumberOfComponents="3" format="ascii">
          0 0 -5.16551e-05 0.000103145 0 -0.000139871 0 0.000103173 -0.000139874 0.000122193 0.000122221 -0.000233922
          0 0 -6.59594e-06 0.000118677 0 -9.45303e-05 0 0.000118706 -9.45335e-05 0.000137321 0.000137349 -0.000188129
          0.000347123 0 -0.000275072 0.000401618 0.00019576 -0.000369924 0.000354992 0 -0.000235552 0.000407109 0.000208106 -0.000330786
          0.000669259 0 -0.000233624 0.000764054 0.000345044 -0.000300904 0.000640966 0 -0.000204135 0.000730196 0.000349447 -0.000272835
          0.00084524 0 0.000208894 0.000948997 0.000543589 0.000198295 0.000773053 0 0.000248862 0.000870485 0.000536102 0.000238673
          0.000422518 0 0.00086985 0.000469507 0.00069433 0.000911067 0.000377191 0 0.000942446 0.000421352 0.000677688 0.000987354
          -0.000422538 0 0.000869809 -0.00046953 0.000694322 0.000911024 -0.000377205 0 0.000942404 -0.000421366 0.000677681 0.00098731
          -0.000845224 0 0.000208815 -0.000948979 0.000543572 0.000198211 -0.000773036 0 0.000248782 -0.000870465 0.000536086 0.000238588
          -0.000669225 0 -0.000233694 -0.000764014 0.000345026 -0.000300978 -0.000640933 0 -0.000204204 -0.000730157 0.00034943 -0.000272909
          -0.000347098 0 -0.000275142 -0.000401587 0.000195747 -0.000369997 -0.000354966 0 -0.00023562 -0.000407078 0.000208094 -0.000330857
          -0.000103132 0 -0.000139946 -0.000122177 0.000122212 -0.000233999 -0.000118664 0 -9.4604e-05 -0.000137305 0.000137341 -0.000188204
          0 0 -5.17243e-05 0 0.000103168 -0.000139947 0 0 -6.66428e-06 0 0.0001187 -9.46057e-05
          0 0.000347177 -0.000275086 0.000195735 0.00040167 -0.000369935 0 0.000355047 -0.000235565 0.000208081 0.000407163 -0.000330797
          0.000586654 0.000586701 -0.000474649 0.000582416 0.000582465 -0.000445135 0.00106754 0.000925928 -0.000289329 0.00101508 0.000901306 -0.00027175
          0.0012713 0.00135316 0.000407917 0.00117298 0.00130202 0.000445889 0.000613548 0.00166875 0.00129134 0.000556749 0.00159831 0.00137674
          -0.000613581 0.00166874 0.00129129 -0.000556773 0.0015983 0.00137668 -0.00127128 0.00135312 0.000407818 -0.00117296 0.00130199 0.000445788
          -0.00106749 0.000925891 -0.000289418 -0.00101503 0.00090127 -0.000271838 -0.000586611 0.000586674 -0.00047473 -0.000582374 0.000582439 -0.000445215
          -0.000195713 0.000401653 -0.000370018 -0.000208059 0.000407146 -0.000330877 0 0.000347165 -0.000275165 0 0.000355036 -0.000235642
          0 0.000669334 -0.000233654 0.000345022 0.000764126 -0.000300931 0 0.000641043 -0.000204164 0.000349425 0.00073027 -0.000272862
          0.000925887 0.00106761 -0.000289346 0.000901263 0.00101515 -0.000271767 0.00158903 0.00158909 0.000157717 0.0015039 0.00150396 0.000170456
          0.00180381 0.00221584 0.00123576 0.00167321 0.00209227 0.00129081 0.000847168 0.00266636 0.002426 0.000776721 0.00251616 0.00255238
          -0.000847226 0.00266634 0.00242594 -0.000776767 0.00251614 0.00255231 -0.0018038 0.00221578 0.00123563 -0.00167319 0.00209222 0.00129067
          -0.00158896 0.00158903 0.0001576 -0.00150384 0.0015039 0.000170339 -0.000925829 0.00106756 -0.000289446 -0.000901206 0.00101511 -0.000271865
          -0.000344991 0.000764099 -0.000301026 -0.000349395 0.000730245 -0.000272954 0 0.000669314 -0.000233743 0 0.000641025 -0.000204251
          0 0.000845328 0.000208844 0.00054357 0.000949083 0.000198246 0 0.000773143 0.000248813 0.000536083 0.000870573 0.000238624
          0.00135312 0.00127138 0.000407878 0.00130198 0.00117306 0.00044585 0.00221579 0.00180388 0.00123574 0.00209222 0.00167328 0.00129078
          0.00242325 0.00242331 0.00281809 0.00225668 0.00225674 0.00295439 0.00111452 0.00285956 0.00439484 0.00102924 0.00266883 0.00463813
          -0.00111461 0.00285954 0.00439476 -0.00102932 0.00266881 0.00463804 -0.00242325 0.00242326 0.00281792 -0.00225667 0.00225669 0.00295421
          -0.00221571 0.00180382 0.00123558 -0.00209215 0.00167322 0.00129062 -0.00135305 0.00127134 0.000407746 -0.00130191 0.00117302 0.000445719
          -0.000543531 0.000949054 0.000198128 -0.000536044 0.000870547 0.000238509 0 0.000845307 0.000208734 0 0.000773125 0.000248704
          0 0.000422612 0.000869781 0.000694313 0.0004696 0.000910997 0 0.000377288 0.000942378 0.00067767 0.000421446 0.000987286
          0.00166872 0.000613632 0.00129128 0.00159828 0.000556836 0.00137668 0.00266632 0.000847244 0.00242596 0.00251611 0.000776798 0.00255233
          0.00285951 0.00111458 0.00439481 0.00266877 0.00102931 0.00463811 0.00130082 0.00130088 0.00625922 0.00120574 0.0012058 0.00663944
          -0.00130094 0.00130087 0.00625912 -0.00120584 0.00120579 0.00663934 -0.00285951 0.00111456 0.00439461 -0.00266878 0.00102929 0.00463789
          -0.00266624 0.000847217 0.00242576 -0.00251604 0.000776773 0.00255213 -0.00166864 0.000613614 0.00129112 -0.0015982 0.00055682 0.00137651
          -0.000694269 0.000469592 0.000910856 -0.000677628 0.00042144 0.000987145 0 0.00042261 0.000869647 0 0.000377287 0.000942246
          0 -0.000422446 0.000869725 0.000694307 -0.000469439 0.000910939 0 -0.000377111 0.000942322 0.000677665 -0.000421274 0.000987227
          0.00166871 -0.000613497 0.00129122 0.00159827 -0.000556687 0.00137661 0.0026663 -0.00084715 0.00242587 0.00251609 -0.000776689 0.00255225
          0.00285949 -0.00111454 0.00439471 0.00266876 -0.00102925 0.004638 0.00130081 -0.00130087 0.0062591 0.00120573 -0.00120578 0.00663932
          -0.00130093 -0.00130087 0.00625901 -0.00120583 -0.00120577 0.00663922 -0.0028595 -0.00111452 0.00439451 -0.00266876 -0.00102924 0.00463779
          -0.00266623 -0.00084713 0.00242568 -0.00251602 -0.000776671 0.00255205 -0.00166863 -0.000613475 0.00129105 -0.00159819 -0.000556667 0.00137644
          -0.000694264 -0.000469415 0.000910795 -0.000677623 -0.000421251 0.000987084 0 -0.000422419 0.000869588 0 -0.000377085 0.000942186
          0 -0.000845142 0.000208717 0.000543557 -0.000948898 0.000198112 0 -0.000772952 0.000248686 0.000536071 -0.000870383 0.00023849
          0.0013531 -0.00127121 0.000407725 0.00130196 -0.00117288 0.000445697 0.00221574 -0.00180373 0.00123555 0.00209218 -0.00167312 0.00129059
          0.00242321 -0.00242319 0.00281786 0.00225664 -0.0022566 0.00295415 0.0011145 -0.00285945 0.00439457 0.00102923 -0.00266872 0.00463786
          -0.00111458 -0.00285944 0.00439449 -0.0010293 -0.0026687 0.00463777 -0.0024232 -0.00242315 0.00281769 -0.00225663 -0.00225657 0.00295398
          -0.00221567 -0.00180369 0.00123539 -0.00209211 -0.00167308 0.00129043 -0.00135303 -0.00127117 0.000407588 -0.00130189 -0.00117284 0.000445562
          -0.00054352 -0.000948862 0.000197985 -0.000536034 -0.000870349 0.000238366 0 -0.000845106 0.000208594 0 -0.000772918 0.000248565
          0 -0.00066916 -0.000233808 0.000345013 -0.00076395 -0.000301092 0 -0.000640866 -0.000204315 0.000349417 -0.000730091 -0.00027302
          0.000925866 -0.00106743 -0.000289523 0.000901244 -0.00101497 -0.000271942 0.00158899 -0.00158891 0.000157509 0.00150387 -0.00150378 0.00017025
          0.00180378 -0.00221566 0.00123551 0.00167317 -0.00209209 0.00129055 0.000847162 -0.00266619 0.00242571 0.000776716 -0.00251599 0.00255209
          -0.000847187 -0.00266618 0.00242565 -0.00077673 -0.00251597 0.00255202 -0.00180374 -0.00221563 0.00123538 -0.00167313 -0.00209206 0.00129042
          -0.00158892 -0.00158887 0.000157385 -0.00150379 -0.00150374 0.000170127 -0.000925801 -0.0010674 -0.000289638 -0.000901179 -0.00101494 -0.000272053
          -0.000344979 -0.000763925 -0.000301207 -0.000349383 -0.000730067 -0.000273132 0 -0.000669136 -0.000233924 0 -0.000640843 -0.000204429
          0 -0.000347053 -0.000275269 0.000195736 -0.000401544 -0.000370124 0 -0.00035492 -0.000235745 0.000208082 -0.000407033 -0.000330982
          0.000586652 -0.00058657 -0.000474846 0.000582416 -0.000582331 -0.000445329 0.00106753 -0.00092579 -0.000289545 0.00101507 -0.000901167 -0.000271962
          0.00127129 -0.00135302 0.000407669 0.00117297 -0.00130187 0.000445644 0.000613562 -0.00166861 0.00129107 0.000556765 -0.00159817 0.00137646
          -0.00061353 -0.0016686 0.00129102 -0.000556723 -0.00159816 0.00137641 -0.00127122 -0.001353 0.000407565 -0.0011729 -0.00130186 0.000445539
          -0.00106744 -0.000925771 -0.000289649 -0.00101498 -0.000901149 -0.000272064 -0.000586583 -0.000586556 -0.000474952 -0.000582347 -0.000582318 -0.000445432
          -0.000195701 -0.000401532 -0.000370239 -0.000208047 -0.000407022 -0.000331094 0 -0.000347043 -0.000275389 0 -0.000354909 -0.000235862
          0 -0.00010311 -0.000140085 0.000122203 -0.000122156 -0.000234138 0 -0.00011864 -9.47417e-05 0.000137331 -0.000137282 -0.000188341
          0.000401633 -0.000195692 -0.000370143 0.000407125 -0.000208037 -0.000331001 0.000764068 -0.000344972 -0.000301132 0.000730212 -0.000349375 -0.000273058
          0.000949012 -0.000543513 0.000198046 0.000870502 -0.000536026 0.000238428 0.000469541 -0.000694252 0.000910794 0.000421387 -0.00067761 0.000987085
          -0.000469468 -0.000694248 0.00091075 -0.000421306 -0.000677607 0.00098704 -0.000948912 -0.000543505 0.000197954 -0.000870399 -0.000536018 0.000238336
          -0.000763965 -0.000344965 -0.000301227 -0.000730108 -0.000349368 -0.000273152 -0.000401559 -0.000195687 -0.000370248 -0.000407049 -0.000208032 -0.000331104
          -0.000122165 -0.000122152 -0.000234257 -0.000137291 -0.000137278 -0.000188457 0 -0.000103106 -0.00014021 0 -0.000118636 -9.48639e-05
          0 0 -5.18712e-05 0.000103158 0 -0.000140092 0 0 -6.80904e-06 0.00011869 0 -9.47483e-05
          0.000347146 0 -0.000275295 0.000355015 0 -0.000235771 0.000669284 0 -0.000233853 0.000640992 0 -0.000204359
          0.000845266 0 0.000208648 0.000773081 0 0.00024862 0.000422561 0 0.000869583 0.000377236 0 0.000942183
          -0.000422471 0 0.000869541 -0.000377139 0 0.00094214 -0.000845155 0 0.00020856 -0.000772968 0 0.000248532
          -0.000669175 0 -0.000233947 -0.000640883 0 -0.000204451 -0.000347068 0 -0.000275401 -0.000354936 0 -0.000235874
          -0.000103118 0 -0.000140213 -0.000118649 0 -9.48666e-05 0 0 -5.19982e-05 0 0 -6.93316e-06
          0 0 4.58485e-06 0.000132115 0 -7.82878e-05 0 0.000132144 -7.82906e-05 0.00014921 0.00014924 -0.000165112
          0.000358304 0 -0.000219233 0.00040664 0.000214669 -0.000306323 0.000606297 0 -0.00019513 0.000689582 0.000346284 -0.000256162
          0.000706713 0 0.000263579 0.000799552 0.000522402 0.000262674 0.000340936 0 0.000982317 0.000383672 0.000657972 0.00103982
          -0.000340942 0 0.000982275 -0.00038368 0.000657966 0.00103977 -0.000706693 0 0.0002635 -0.00079953 0.000522387 0.000262589
          -0.000606264 0 -0.000195198 -0.000689543 0.000346268 -0.000256235 -0.000358278 0 -0.000219299 -0.000406609 0.000214657 -0.000306392
          -0.000132101 0 -7.83599e-05 -0.000149195 0.000149232 -0.000165186 0 0 4.51721e-06 0 0.000132139 -7.83619e-05
          0 0.000358361 -0.000219246 0.000214642 0.000406696 -0.000306334 0.000569304 0.000569355 -0.000419826 0.00095693 0.000867739 -0.000255978
          0.00108984 0.00124924 0.000475743 0.000515667 0.00153594 0.00144683 -0.000515683 0.00153593 0.00144678 -0.00108981 0.00124921 0.000475641
          -0.00095688 0.000867705 -0.000256065 -0.000569263 0.00056933 -0.000419903 -0.000214621 0.000406681 -0.000306412 0 0.00035835 -0.000219322
          0 0.000606376 -0.000195159 0.000346261 0.000689658 -0.00025619 0.000867695 0.000957 -0.000255995 0.00142215 0.00142221 0.000180822
          0.00157719 0.00199326 0.00133666 0.000733319 0.00241154 0.00266512 -0.000733356 0.00241152 0.00266505 -0.00157716 0.00199321 0.00133653
          -0.00142209 0.00142216 0.000180705 -0.000867639 0.000956963 -0.00025609 -0.000346232 0.000689635 -0.000256279 0 0.00060636 -0.000195244
          0 0.000706805 0.000263531 0.000522382 0.000799643 0.000262626 0.0012492 0.00108992 0.000475705 0.00199321 0.00157726 0.00133664
          0.00215664 0.0021567 0.00307975 0.000987798 0.00257233 0.00487394 -0.000987866 0.00257231 0.00487385 -0.00215662 0.00215665 0.00307957
          -0.00199313 0.00157721 0.00133647 -0.00124913 0.00108988 0.000475575 -0.000522345 0.000799619 0.000262513 0 0.000706789 0.000263425
          0 0.000341034 0.000982251 0.000657955 0.000383769 0.00103975 0.00153591 0.000515756 0.00144678 0.0024115 0.000733399 0.00266507
          0.00257227 0.00098787 0.00487392 0.00116829 0.00116835 0.00702444 -0.00116838 0.00116834 0.00702433 -0.00257227 0.000987846 0.00487369
          -0.00241142 0.000733374 0.00266486 -0.00153583 0.000515741 0.00144661 -0.000657913 0.000383764 0.00103961 0 0.000341035 0.000982119
          0 -0.000340846 0.000982194 0.000657949 -0.000383586 0.00103969 0.0015359 -0.000515595 0.00144671 0.00241148 -0.000733276 0.00266498
          0.00257225 -0.000987794 0.00487381 0.00116828 -0.00116831 0.00702432 -0.00116837 -0.00116831 0.00702421 -0.00257225 -0.000987779 0.00487359
          -0.0024114 -0.000733258 0.00266478 -0.00153582 -0.000515575 0.00144654 -0.000657909 -0.000383563 0.00103955 0 -0.000340821 0.00098206
          0 -0.000706608 0.000263405 0.000522371 -0.000799446 0.000262493 0.00124918 -0.00108974 0.000475552 0.00199317 -0.00157709 0.00133645
          0.0021566 -0.00215656 0.00307951 0.000987784 -0.00257221 0.00487366 -0.000987842 -0.00257219 0.00487357 -0.00215658 -0.00215652 0.00307933
          -0.0019931 -0.00157705 0.00133629 -0.00124911 -0.0010897 0.000475418 -0.000522336 -0.000799413 0.000262371 0 -0.000706575 0.000263287
          0 -0.000606196 -0.000195307 0.000346254 -0.000689476 -0.000256344 0.000867678 -0.000956817 -0.000256166 0.00142212 -0.00142203 0.000180618
          0.00157716 -0.00199308 0.00133641 0.000733315 -0.00241137 0.00266482 -0.000733319 -0.00241135 0.00266475 -0.00157711 -0.00199305 0.00133627
          -0.00142204 -0.001422 0.000180496 -0.000867613 -0.00095679 -0.000256275 -0.000346221 -0.000689453 -0.000256454 0 -0.000606173 -0.000195417
          0 -0.00035823 -0.000219422 0.000214645 -0.000406563 -0.000306515 0.000569305 -0.000569219 -0.000420015 0.000956925 -0.000867598 -0.000256185
          0.00108983 -0.0012491 0.000475502 0.000515684 -0.00153579 0.00144656 -0.000515634 -0.00153579 0.00144651 -0.00108975 -0.00124908 0.000475397
          -0.000956834 -0.000867582 -0.000256286 -0.000569236 -0.000569206 -0.000420116 -0.000214608 -0.000406552 -0.000306625 0 -0.000358218 -0.000219537
          0 -0.000132077 -7.84954e-05 0.000149221 -0.000149171 -0.00016532 0.000406658 -0.000214598 -0.000306534 0.0006896 -0.000346211 -0.000256381
          0.000799572 -0.000522326 0.000262433 0.000383709 -0.000657895 0.00103955 -0.000383619 -0.000657891 0.00103951 -0.000799466 -0.000522319 0.000262341
          -0.000689495 -0.000346205 -0.000256473 -0.00040658 -0.000214593 -0.000306634 -0.00014918 -0.000149166 -0.000165434 0 -0.000132072 -7.86146e-05
          0 0 4.37489e-06 0.000132129 0 -7.8502e-05 0.000358328 0 -0.000219448 0.000606325 0 -0.000195349
          0.000706743 0 0.000263343 0.000340981 0 0.000982058 -0.000340876 0 0.000982014 -0.000706626 0 0.000263254
          -0.000606214 0 -0.00019544 -0.000358246 0 -0.000219549 -0.000132086 0 -7.86173e-05 0 0 4.25401e-06
          0 0 -5.74926e-07 0.000143513 0 -7.7565e-05 0 0.000143544 -7.75675e-05 0.000158859 0.00015889 -0.000156378
          0.000357212 0 -0.000214436 0.0004009 0.00021792 -0.000291228 0.000567308 0 -0.000194485 0.000644464 0.000338758 -0.000245572
          0.000645691 0 0.000263761 0.000735558 0.000505775 0.000273933 0.000311888 0 0.00100228 0.000354521 0.000638268 0.00107439
          -0.000311888 0 0.00100224 -0.000354521 0.000638262 0.00107434 -0.000645668 0 0.000263682 -0.000735532 0.000505759 0.000273848
          -0.000567275 0 -0.000194551 -0.000644426 0.000338743 -0.000245643 -0.000357186 0 -0.000214501 -0.000400869 0.000217909 -0.000291296
          -0.0001435 0 -7.76354e-05 -0.000158844 0.000158882 -0.00015645 0 0 -6.41562e-07 0 0.000143539 -7.76375e-05
          0 0.000357271 -0.000214449 0.000217892 0.000400957 -0.000291239 0.000548879 0.000548931 -0.000398069 0.000895283 0.000826878 -0.000242376
          0.00102046 0.00119557 0.000494675 0.000487962 0.0014814 0.0015018 -0.000487971 0.00148138 0.00150174 -0.00102043 0.00119553 0.000494573
          -0.000895232 0.000826846 -0.000242461 -0.000548838 0.000548908 -0.000398144 -0.000217871 0.000400943 -0.000291315 0 0.000357261 -0.000214523
          0 0.000567388 -0.000194513 0.000338734 0.000644542 -0.000245599 0.000826833 0.000895354 -0.000242393 0.0013446 0.00134467 0.000185674
          0.00151234 0.00191717 0.00136736 0.000713822 0.00234907 0.0027633 -0.000713852 0.00234904 0.00276323 -0.00151231 0.00191712 0.00136723
          -0.00134454 0.00134462 0.000185559 -0.000826777 0.00089532 -0.000242485 -0.000338705 0.000644522 -0.000245686 0 0.000567374 -0.000194596
          0 0.000645785 0.000263714 0.000505754 0.00073565 0.000273886 0.00119553 0.00102054 0.000494637 0.00191711 0.00151242 0.00136734
          0.00211727 0.00211734 0.00318836 0.000986203 0.00256273 0.00510673 -0.000986265 0.00256271 0.00510664 -0.00211725 0.00211728 0.00318817
          -0.00191704 0.00151237 0.00136718 -0.00119546 0.0010205 0.00049451 -0.000505717 0.000735629 0.000273775 0 0.000645771 0.00026361
          0 0.000311988 0.00100222 0.00063825 0.000354619 0.00107432 0.00148136 0.000488053 0.00150174 0.00234901 0.000713904 0.00276326
          0.00256267 0.000986277 0.00510671 0.00118406 0.00118413 0.007435 -0.00118415 0.00118412 0.00743488 -0.00256266 0.000986251 0.00510648
          -0.00234893 0.000713878 0.00276304 -0.00148128 0.000488038 0.00150157 -0.000638208 0.000354615 0.00107418 0 0.00031199 0.00100209
          0 -0.00031179 0.00100216 0.000638245 -0.000354426 0.00107426 0.00148135 -0.000487881 0.00150167 0.002349 -0.00071377 0.00276317
          0.00256265 -0.000986191 0.0051066 0.00118406 -0.00118408 0.00743486 -0.00118414 -0.00118408 0.00743475 -0.00256264 -0.000986174 0.00510636
          -0.00234892 -0.00071375 0.00276296 -0.00148127 -0.00048786 0.0015015 -0.000638205 -0.000354402 0.00107412 0 -0.000311765 0.00100203
          0 -0.000645581 0.000263589 0.000505744 -0.000735447 0.000273754 0.0011955 -0.00102035 0.000494485 0.00191707 -0.00151224 0.00136715
          0.00211723 -0.00211718 0.00318811 0.000986187 -0.00256259 0.00510644 -0.00098624 -0.00256258 0.00510635 -0.0021172 -0.00211714 0.00318793
          -0.001917 -0.0015122 0.00136699 -0.00119543 -0.00102031 0.000494355 -0.000505708 -0.000735415 0.000273636 0 -0.000645549 0.000263474
          0 -0.000567205 -0.000194657 0.000338728 -0.000644357 -0.00024575 0.000826817 -0.000895168 -0.00024256 0.00134457 -0.00134448 0.000185474
          0.00151231 -0.00191698 0.00136711 0.000713816 -0.00234888 0.002763 -0.000713813 -0.00234887 0.00276293 -0.00151226 -0.00191695 0.00136698
          -0.0013445 -0.00134445 0.000185354 -0.000826753 -0.000895142 -0.000242666 -0.000338695 -0.000644335 -0.000245856 0 -0.000567183 -0.000194765
          0 -0.000357137 -0.000214621 0.000217896 -0.000400822 -0.000291416 0.000548882 -0.000548793 -0.000398253 0.000895279 -0.000826736 -0.000242578
          0.00102045 -0.00119542 0.000494439 0.000487979 -0.00148125 0.00150152 -0.000487921 -0.00148124 0.00150147 -0.00102037 -0.0011954 0.000494333
          -0.000895188 -0.00082672 -0.000242676 -0.000548812 -0.000548781 -0.000398352 -0.000217859 -0.00040081 -0.000291523 0 -0.000357125 -0.000214733
          0 -0.000143475 -7.77684e-05 0.000158871 -0.000158819 -0.000156582 0.000400918 -0.000217848 -0.000291434 0.000644484 -0.000338684 -0.000245785
          0.000735579 -0.000505697 0.000273698 0.000354558 -0.00063819 0.00107412 -0.000354461 -0.000638187 0.00107408 -0.000735469 -0.000505691 0.000273606
          -0.000644378 -0.000338678 -0.000245876 -0.00040084 -0.000217843 -0.000291532 -0.000158829 -0.000158814 -0.000156693 0 -0.000143469 -7.78842e-05
          0 0 -7.81164e-07 0.000143528 0 -7.77749e-05 0.000357237 0 -0.000214646 0.000567337 0 -0.000194699
          0.000645723 0 0.00026353 0.000311934 0 0.00100203 -0.000311822 0 0.00100198 -0.000645602 0 0.000263442
          -0.000567226 0 -0.000194788 -0.000357154 0 -0.000214745 -0.000143483 0 -7.7887e-05 0 0 -8.98418e-07
          0 0 -1.37673e-05 0.000152469 0 -8.52865e-05 0 0.0001525 -8.52887e-05 0.000166314 0.000166345 -0.00015646
          0.000352474 0 -0.000214969 0.000391227 0.000218938 -0.000281439 0.000525598 0 -0.000196051 0.00059653 0.000328617 -0.000237377
          0.000589373 0 0.00025487 0.0006777 0.00048787 0.000275207 0.000288626 0 0.00100908 0.000332418 0.000619984 0.00109523
          -0.000288619 0 0.00100904 -0.000332413 0.000619977 0.00109519 -0.000589347 0 0.000254792 -0.000677671 0.000487856 0.000275123
          -0.000525565 0 -0.000196116 -0.000596492 0.000328603 -0.000237446 -0.000352449 0 -0.000215032 -0.000391196 0.000218928 -0.000281506
          -0.000152455 0 -8.53551e-05 -0.000166298 0.000166338 -0.00015653 0 0 -1.38325e-05 0 0.000152496 -8.53571e-05
          0 0.000352535 -0.000214981 0.00021891 0.000391285 -0.000281451 0.000523414 0.000523467 -0.000377886 0.000831338 0.00078077 -0.000230222
          0.000963097 0.00114171 0.000501579 0.000471927 0.00143449 0.00154244 -0.000471929 0.00143447 0.00154238 -0.000963062 0.00114168 0.000501477
          -0.000831286 0.00078074 -0.000230305 -0.000523373 0.000523447 -0.000377959 -0.000218889 0.000391272 -0.000281525 0 0.000352526 -0.000215054
          0 0.00052568 -0.000196078 0.000328593 0.000596611 -0.000237404 0.000780723 0.000831412 -0.000230238 0.00127038 0.00127045 0.000182479
          0.00147528 0.00186073 0.00137749 0.000716357 0.00232455 0.00284535 -0.000716382 0.00232453 0.00284527 -0.00147525 0.00186067 0.00137735
          -0.00127031 0.0012704 0.000182366 -0.000780669 0.000831379 -0.000230328 -0.000328565 0.000596592 -0.000237488 0 0.000525668 -0.000196159
          0 0.00058947 0.000254824 0.000487849 0.000677794 0.000275161 0.00114167 0.000963184 0.000501542 0.00186067 0.00147536 0.00137747
          0.00213456 0.00213463 0.00327441 0.00102323 0.00263695 0.0053405 -0.0010233 0.00263693 0.0053404 -0.00213453 0.00213458 0.00327421
          -0.00186058 0.00147531 0.0013773 -0.0011416 0.000963147 0.000501418 -0.000487813 0.000677774 0.000275054 0 0.000589457 0.000254723
          0 0.000288728 0.00100901 0.000619965 0.000332519 0.00109517 0.00143445 0.00047202 0.00154238 0.00232449 0.000716442 0.0028453
          0.00263689 0.00102331 0.00534048 0.00125301 0.00125308 0.00789248 -0.0012531 0.00125307 0.00789236 -0.00263687 0.00102328 0.00534023
          -0.0023244 0.000716415 0.00284509 -0.00143437 0.000472005 0.00154222 -0.000619924 0.000332515 0.00109503 0 0.00028873 0.00100889
          0 -0.00028852 0.00100896 0.00061996 -0.000332315 0.00109511 0.00143444 -0.000471838 0.00154231 0.00232448 -0.000716299 0.00284521
          0.00263687 -0.00102322 0.00534036 0.001253 -0.00125303 0.00789234 -0.00125309 -0.00125302 0.00789221 -0.00263685 -0.0010232 0.00534012
          -0.00232439 -0.000716276 0.002845 -0.00143436 -0.000471816 0.00154215 -0.00061992 -0.000332291 0.00109497 0 -0.000288494 0.00100883
          0 -0.000589259 0.000254702 0.000487839 -0.000677584 0.000275032 0.00114164 -0.000962981 0.000501392 0.00186063 -0.00147517 0.00137728
          0.00213452 -0.00213446 0.00327415 0.00102322 -0.0026368 0.0053402 -0.00102327 -0.00263678 0.0053401 -0.00213448 -0.00213442 0.00327396
          -0.00186055 -0.00147513 0.00137711 -0.00114157 -0.000962945 0.000501265 -0.000487805 -0.000677552 0.000274917 0 -0.000589227 0.00025459
          0 -0.000525493 -0.000196219 0.000328588 -0.000596422 -0.000237551 0.000780709 -0.00083122 -0.000230401 0.00127035 -0.00127025 0.000182284
          0.00147525 -0.00186053 0.00137724 0.00071635 -0.00232435 0.00284504 -0.000716341 -0.00232433 0.00284497 -0.00147519 -0.00186049 0.0013771
          -0.00127027 -0.00127022 0.000182167 -0.000780646 -0.000831197 -0.000230503 -0.000328555 -0.000596401 -0.000237654 0 -0.000525472 -0.000196324
          0 -0.000352399 -0.00021515 0.000218914 -0.000391148 -0.000281623 0.000523418 -0.000523327 -0.000378065 0.000831337 -0.000780626 -0.000230417
          0.000963092 -0.00114156 0.000501349 0.000471943 -0.00143433 0.00154217 -0.000471878 -0.00143432 0.00154212 -0.000963002 -0.00114154 0.000501245
          -0.000831243 -0.000780612 -0.000230514 -0.000523348 -0.000523316 -0.000378161 -0.000218877 -0.000391136 -0.000281727 0 -0.000352386 -0.000215258
          0 -0.000152429 -8.54851e-05 0.000166325 -0.000166272 -0.000156659 0.000391246 -0.000218865 -0.000281641 0.000596552 -0.000328543 -0.000237585
          0.000677722 -0.000487793 0.000274979 0.000332456 -0.000619904 0.00109498 -0.000332352 -0.000619901 0.00109493 -0.000677608 -0.000487787 0.000274888
          -0.000596446 -0.000328538 -0.000237674 -0.000391167 -0.00021886 -0.000281737 -0.000166282 -0.000166267 -0.000156766 0 -0.000152423 -8.55972e-05
          0 0 -1.3969e-05 0.000152483 0 -8.54915e-05 0.0003525 0 -0.000215174 0.000525629 0 -0.00019626
          0.000589406 0 0.000254645 0.000288672 0 0.00100883 -0.000288553 0 0.00100878 -0.000589281 0 0.000254558
          -0.000525516 0 -0.000196347 -0.000352416 0 -0.00021527 -0.000152438 0 -8.56001e-05 0 0 -1.40823e-05
          0 0 -3.06263e-05 0.000158505 0 -9.75234e-05 0 0.000158537 -9.75254e-05 0.000171348 0.00017138 -0.000161943
          0.000344992 0 -0.000217616 0.000379081 0.000218308 -0.000274306 0.000482601 0 -0.000196633 0.000547256 0.000317046 -0.000229017
          0.000537018 0 0.000239823 0.000624986 0.000469662 0.000268538 0.000270062 0 0.00100624 0.000316263 0.000603825 0.00110515
          -0.00027005 0 0.0010062 -0.000316251 0.000603818 0.0011051 -0.000536989 0 0.000239746 -0.000624953 0.000469648 0.000268456
          -0.000482568 0 -0.000196696 -0.000547216 0.000317033 -0.000229084 -0.000344966 0 -0.000217678 -0.000379051 0.000218299 -0.000274371
          -0.000158491 0 -9.75901e-05 -0.000171332 0.000171373 -0.000162012 0 0 -3.06899e-05 0 0.000158533 -9.75919e-05
          0 0.000345053 -0.000217629 0.00021828 0.000379141 -0.000274317 0.000495362 0.000495417 -0.000357182 0.000765806 0.000731499 -0.000217903
          0.00091565 0.00108808 0.000496409 0.000466414 0.00139472 0.00156982 -0.00046641 0.0013947 0.00156976 -0.000915609 0.00108805 0.000496308
          -0.000765753 0.00073147 -0.000217982 -0.000495323 0.000495398 -0.000357253 -0.000218259 0.000379129 -0.000274389 0 0.000345045 -0.000217699
          0 0.000482686 -0.000196659 0.000317021 0.000547338 -0.000229043 0.00073145 0.000765882 -0.000217919 0.00119743 0.0011975 0.000170048
          0.00146233 0.00181921 0.00136194 0.000740253 0.00233307 0.002909 -0.000740275 0.00233305 0.00290893 -0.00146229 0.00181915 0.0013618
          -0.00119736 0.00119745 0.000169939 -0.000731396 0.000765852 -0.000218004 -0.000316993 0.000547322 -0.000229125 0 0.000482676 -0.000196738
          0 0.000537116 0.000239779 0.00046964 0.000625083 0.000268494 0.00108804 0.000915739 0.000496373 0.00181915 0.00146241 0.00136192
          0.00220583 0.00220591 0.00333069 0.00110049 0.00279576 0.00557828 -0.00110055 0.00279573 0.00557818 -0.00220579 0.00220584 0.00333048
          -0.00181905 0.00146235 0.00136175 -0.00108797 0.000915701 0.000496253 -0.000469605 0.000625064 0.00026839 0 0.000537106 0.00023968
          0 0.000270166 0.00100618 0.000603805 0.000316364 0.00110509 0.00139468 0.000466509 0.00156977 0.00233302 0.00074034 0.00290896
          0.00279569 0.00110057 0.00557826 0.00137973 0.0013798 0.00842086 -0.00137983 0.00137978 0.00842072 -0.00279566 0.00110053 0.00557799
          -0.00233291 0.00074031 0.00290874 -0.0013946 0.000466493 0.00156961 -0.000603764 0.000316361 0.00110495 0 0.000270169 0.00100605
          0 -0.000269949 0.00100612 0.0006038 -0.000316152 0.00110503 0.00139467 -0.000466318 0.00156969 0.002333 -0.00074019 0.00290887
          0.00279566 -0.00110047 0.00557814 0.00137971 -0.00137975 0.0084207 -0.00137981 -0.00137974 0.00842057 -0.00279563 -0.00110044 0.00557787
          -0.0023329 -0.000740162 0.00290865 -0.00139459 -0.000466292 0.00156954 -0.00060376 -0.000316127 0.00110489 0 -0.000269923 0.00100599
          0 -0.000536899 0.00023966 0.000469631 -0.000624865 0.000268368 0.00108802 -0.000915526 0.000496226 0.0018191 -0.00146221 0.00136173
          0.00220578 -0.00220572 0.00333043 0.00110046 -0.00279559 0.00557796 -0.00110052 -0.00279557 0.00557786 -0.00220574 -0.00220567 0.00333023
          -0.00181901 -0.00146216 0.00136157 -0.00108795 -0.000915489 0.000496104 -0.000469597 -0.000624834 0.000268256 0 -0.000536868 0.000239551
          0 -0.000482495 -0.000196796 0.000317017 -0.000547145 -0.000229185 0.000731438 -0.000765686 -0.000218075 0.0011974 -0.0011973 0.00016986
          0.00146229 -0.00181899 0.00136169 0.000740243 -0.00233286 0.0029087 -0.00074023 -0.00233284 0.00290862 -0.00146222 -0.00181896 0.00136156
          -0.00119732 -0.00119727 0.000169747 -0.000731375 -0.000765664 -0.000218174 -0.000316984 -0.000547125 -0.000229286 0 -0.000482475 -0.000196898
          0 -0.000344915 -0.000217793 0.000218284 -0.000379001 -0.000274485 0.000495368 -0.000495275 -0.000357356 0.000765807 -0.000731353 -0.000218091
          0.000915644 -0.00108793 0.000496186 0.000466429 -0.00139456 0.00156956 -0.000466357 -0.00139455 0.0015695 -0.000915548 -0.00108791 0.000496083
          -0.000765712 -0.00073134 -0.000218184 -0.000495298 -0.000495265 -0.00035745 -0.000218246 -0.000378989 -0.000274587 0 -0.000344902 -0.000217898