ZCORN
  2.0000000e+03 
  2.0000000e+03 
  2.0000000e+03 
  2.0000000e+03 
  2.0200000e+03 
  2.0200000e+03 
  2.0200000e+03 
  2.0200000e+03 
/

