<?xml version="1.0"?>
<VTKFile type="UnstructuredGrid" version="0.1" byte_order="LittleEndian">
  <UnstructuredGrid>
    <Piece NumberOfCells="3025" NumberOfPoints="3744">
      <PointData Vectors="disp">
        <DataArray type="Float32" Name="disp" NumberOfComponents="3" format="ascii">
          0 0 -0.000268411 -0.000158338 0 -0.000337193 0 -0.00015834 -0.000337192 -0.000170289 -0.000170292 -0.000415351
          0 0 -0.00019206 -0.000146234 0 -0.000258845 0 -0.000146236 -0.000258844 -0.000157423 -0.000157426 -0.00033447
          -0.000192181 0 -0.000446026 -0.000205984 -0.000196046 -0.000540584 -0.000181281 0 -0.000367173 -0.000193979 -0.000181313 -0.000459015
          -0.000169054 0 -0.000520579 -0.000179892 -0.000220688 -0.000627173 -0.000162341 0 -0.000443348 -0.000172438 -0.000204108 -0.000547841
          -0.000106125 0 -0.000566524 -0.000112257 -0.000237658 -0.000680725 -0.00010323 0 -0.000489428 -0.00010894 -0.000219915 -0.000601928
          -3.34475e-05 0 -0.00057321 -3.52756e-05 -0.000245618 -0.00069072 -3.34089e-05 0 -0.00049527 -3.51108e-05 -0.000227327 -0.000611234
          3.34288e-05 0 -0.000573205 3.52571e-05 -0.000245618 -0.000690714 3.3389e-05 0 -0.000495265 3.5091e-05 -0.000227327 -0.000611229
          0.000106108 0 -0.000566509 0.000112241 -0.000237657 -0.000680707 0.000103212 0 -0.000489412 0.000108922 -0.000219914 -0.000601911
          0.00016904 0 -0.000520554 0.000179878 -0.000220686 -0.000627144 0.000162326 0 -0.000443323 0.000172423 -0.000204107 -0.000547813
          0.000192169 0 -0.000445993 0.000205972 -0.000196045 -0.000540547 0.000181269 0 -0.000367141 0.000193967 -0.000181312 -0.000458978
          0.000158328 0 -0.000337158 0.00017028 -0.00017029 -0.000415312 0.000146225 0 -0.00025881 0.000157414 -0.000157425 -0.000334432
          0 0 -0.000268378 0 -0.000158339 -0.000337155 0 0 -0.000192027 0 -0.000146236 -0.000258808
          0 -0.000192185 -0.000446022 -0.000196044 -0.000205988 -0.000540581 0 -0.000181286 -0.00036717 -0.00018131 -0.000193984 -0.000459012
          -0.000236831 -0.000236836 -0.00069601 -0.000222415 -0.00022242 -0.000614272 -0.000204092 -0.000267242 -0.000806488 -0.000195034 -0.000250656 -0.00072818
          -0.00012542 -0.000287634 -0.000875022 -0.000121211 -0.000269716 -0.000797912 -3.89906e-05 -0.000296551 -0.000891099 -3.85667e-05 -0.000278032 -0.000813441
          3.89723e-05 -0.000296552 -0.000891092 3.85468e-05 -0.000278032 -0.000813434 0.000125403 -0.000287635 -0.000875002 0.000121193 -0.000269718 -0.000797892
          0.000204078 -0.000267244 -0.000806455 0.000195019 -0.000250659 -0.000728148 0.000236819 -0.000236839 -0.000695968 0.000222402 -0.000222423 -0.000614231
          0.000196034 -0.000205992 -0.000540537 0.0001813 -0.000193988 -0.000458969 0 -0.000192189 -0.000445981 0 -0.000181291 -0.00036713
          0 -0.000169061 -0.000520572 -0.000220685 -0.000179899 -0.000627166 0 -0.000162348 -0.00044334 -0.000204105 -0.000172445 -0.000547834
          -0.000267237 -0.000204099 -0.000806484 -0.000250652 -0.000195041 -0.000728176 -0.000226954 -0.000226961 -0.000937057 -0.000216481 -0.000216488 -0.0008631
          -0.00013622 -0.000240232 -0.00101676 -0.000131278 -0.000228942 -0.00094423 -4.14463e-05 -0.000244571 -0.001036 -4.08271e-05 -0.000232955 -0.00096265
          4.14261e-05 -0.000244573 -0.001036 4.08053e-05 -0.000232957 -0.000962644 0.000136202 -0.000240237 -0.00101674 0.000131259 -0.000228947 -0.000944211
          0.000226939 -0.000226969 -0.000937023 0.000216464 -0.000216495 -0.000863068 0.000267225 -0.000204108 -0.00080644 0.000250638 -0.000195051 -0.000728134
          0.000220674 -0.000179909 -0.000627121 0.000204094 -0.000172455 -0.00054779 0 -0.000169071 -0.000520529 0 -0.000162359 -0.000443299
          0 -0.000106133 -0.000566512 -0.000237656 -0.000112266 -0.000680713 0 -0.000103239 -0.000489416 -0.000219912 -0.000108949 -0.000601916
          -0.000287629 -0.000125428 -0.000875013 -0.000269712 -0.00012122 -0.000797903 -0.000240225 -0.000136229 -0.00101675 -0.000228935 -0.000131287 -0.000944226
          -0.000140032 -0.000140041 -0.00109984 -0.000134736 -0.000134746 -0.00102825 -4.13427e-05 -0.000139411 -0.00111771 -4.06514e-05 -0.000134015 -0.00104451
          4.13185e-05 -0.000139414 -0.0011177 4.06258e-05 -0.000134018 -0.00104451 0.000140011 -0.000140049 -0.00109982 0.000134714 -0.000134753 -0.00102823
          0.000240208 -0.000136241 -0.00101672 0.000228916 -0.000131299 -0.000944195 0.000287616 -0.000125442 -0.000874971 0.000269697 -0.000121234 -0.000797863
          0.000237644 -0.000112281 -0.000680668 0.000219901 -0.000108964 -0.000601873 0 -0.000106149 -0.00056647 0 -0.000103254 -0.000489375
          0 -3.34576e-05 -0.000573194 -0.000245616 -3.52857e-05 -0.000690704 0 -3.34194e-05 -0.000495254 -0.000227324 -3.51213e-05 -0.000611218
          -0.000296547 -3.90007e-05 -0.000891086 -0.000278027 -3.85772e-05 -0.000813428 -0.000244564 -4.14566e-05 -0.00103599 -0.000232947 -4.08377e-05 -0.000962641
          -0.000139402 -4.13532e-05 -0.00111771 -0.000134006 -4.06623e-05 -0.00104451 -4.01519e-05 -4.01628e-05 -0.0011326 -3.94556e-05 -3.94669e-05 -0.001057
          4.01225e-05 -4.01661e-05 -0.00113259 3.9425e-05 -3.94701e-05 -0.001057 0.000139376 -4.13626e-05 -0.00111769 0.000133979 -4.06715e-05 -0.00104449
          0.000244544 -4.14707e-05 -0.00103597 0.000232926 -4.08516e-05 -0.000962614 0.000296532 -3.90177e-05 -0.000891046 0.000278011 -3.85939e-05 -0.00081339
          0.000245604 -3.53036e-05 -0.000690661 0.000227312 -3.5139e-05 -0.000611178 0 -3.34759e-05 -0.000573152 0 -3.34376e-05 -0.000495214
          0 3.34181e-05 -0.000573186 -0.000245615 3.52463e-05 -0.000690695 0 3.3378e-05 -0.000495246 -0.000227324 3.508e-05 -0.00061121
          -0.000296547 3.89615e-05 -0.000891076 -0.000278027 3.85358e-05 -0.000813418 -0.000244565 4.14151e-05 -0.00103599 -0.000232949 4.07941e-05 -0.000962632
          -0.000139404 4.13072e-05 -0.0011177 -0.000134008 4.06143e-05 -0.0010445 -4.01545e-05 4.01108e-05 -0.00113259 -3.94582e-05 3.94131e-05 -0.001057
          4.01199e-05 4.01076e-05 -0.00113258 3.94225e-05 3.94099e-05 -0.00105699 0.000139374 4.12978e-05 -0.00111768 0.000133977 4.06051e-05 -0.00104449
          0.000244542 4.14006e-05 -0.00103596 0.000232925 4.07799e-05 -0.000962609 0.000296531 3.89437e-05 -0.000891039 0.00027801 3.85184e-05 -0.000813384
          0.000245604 3.52275e-05 -0.000690655 0.000227312 3.50614e-05 -0.000611171 0 3.3399e-05 -0.000573146 0 3.33591e-05 -0.000495208
          0 0.000106098 -0.000566488 -0.000237654 0.00011223 -0.000680687 0 0.000103201 -0.000489392 -0.000219911 0.000108911 -0.00060189
          -0.00028763 0.000125393 -0.000874984 -0.000269713 0.000121182 -0.000797875 -0.000240229 0.000136192 -0.00101672 -0.000228939 0.000131248 -0.000944198
          -0.000140039 0.00014 -0.00109982 -0.000134743 0.000134703 -0.00102823 -4.13503e-05 0.000139365 -0.00111768 -4.06588e-05 0.000133968 -0.00104449
          4.1311e-05 0.000139362 -0.00111768 4.06185e-05 0.000133965 -0.00104449 0.000140004 0.000139992 -0.0010998 0.000134707 0.000134694 -0.00102822
          0.000240203 0.000136178 -0.0010167 0.000228911 0.000131235 -0.000944177 0.000287612 0.000125376 -0.000874951 0.000269694 0.000121166 -0.000797844
          0.000237643 0.000112212 -0.000680648 0.0002199 0.000108894 -0.000601854 0 0.00010608 -0.000566449 0 0.000103183 -0.000489355
          0 0.000169031 -0.000520532 -0.000220683 0.00017987 -0.000627123 0 0.000162317 -0.000443302 -0.000204104 0.000172414 -0.000547792
          -0.000267239 0.000204069 -0.000806437 -0.000250653 0.00019501 -0.00072813 -0.00022696 0.00022693 -0.000937009 -0.000216487 0.000216455 -0.000863054
          -0.00013623 0.000240199 -0.00101671 -0.000131287 0.000228907 -0.000944186 -4.14577e-05 0.000244534 -0.00103596 -4.08381e-05 0.000232917 -0.00096261
          4.14146e-05 0.000244532 -0.00103596 4.07941e-05 0.000232914 -0.000962607 0.000136192 0.000240192 -0.0010167 0.000131249 0.0002289 -0.000944176
          0.000226931 0.000226919 -0.000936988 0.000216456 0.000216445 -0.000863035 0.000267219 0.000204055 -0.000806406 0.000250633 0.000194997 -0.000728102
          0.000220672 0.000179855 -0.000627087 0.000204092 0.000172399 -0.000547757 0 0.000169016 -0.000520494 0 0.000162302 -0.000443265
          0 0.000192162 -0.00044597 -0.000196042 0.000205965 -0.000540524 0 0.000181262 -0.000367118 -0.000181308 0.00019396 -0.000458956
          -0.000236833 0.000236813 -0.000695948 -0.000222417 0.000222396 -0.000614212 -0.000204099 0.000267218 -0.000806425 -0.000195041 0.000250632 -0.000728119
          -0.000125431 0.000287609 -0.000874961 -0.000121222 0.00026969 -0.000797853 -3.9004e-05 0.000296525 -0.00089104 -3.85798e-05 0.000278004 -0.000813385
          3.89584e-05 0.000296524 -0.000891037 3.85333e-05 0.000278002 -0.000813382 0.00012539 0.000287605 -0.00087495 0.00012118 0.000269686 -0.000797843
          0.000204067 0.000267211 -0.000806406 0.000195009 0.000250624 -0.000728101 0.000236812 0.000236804 -0.00069592 0.000222395 0.000222386 -0.000614185
          0.000196031 0.000205955 -0.000540489 0.000181297 0.00019395 -0.000458923 0 0.000192152 -0.000445932 0 0.000181252 -0.000367082
          0 0.000158325 -0.000337134 -0.000170287 0.000170277 -0.000415289 0 0.000146222 -0.000258787 -0.000157422 0.00015741 -0.000334409
          -0.000205986 0.00019603 -0.000540517 -0.000193982 0.000181297 -0.000458949 -0.0001799 0.000220671 -0.000627105 -0.000172446 0.000204091 -0.000547775
          -0.000112269 0.000237641 -0.000680658 -0.000108951 0.000219897 -0.000601863 -3.52894e-05 0.0002456 -0.000690655 -3.51245e-05 0.000227309 -0.000611172
          3.52427e-05 0.0002456 -0.000690651 3.50768e-05 0.000227308 -0.000611168 0.000112227 0.000237639 -0.000680646 0.000108909 0.000219896 -0.000601853
          0.000179867 0.000220668 -0.000627086 0.000172412 0.000204088 -0.000547757 0.000205964 0.000196026 -0.000540488 0.000193959 0.000181293 -0.000458922
          0.000170277 0.000170272 -0.000415253 0.000157411 0.000157406 -0.000334374 0 0.000158321 -0.000337095 0 0.000146217 -0.000258749
          0 0 -0.000268354 -0.000158336 0 -0.000337131 0 0 -0.000192003 -0.000146233 0 -0.000258785
          -0.000192183 0 -0.000445961 -0.000181284 0 -0.000367109 -0.000169062 0 -0.000520513 -0.000162349 0 -0.000443284
          -0.000106137 0 -0.000566459 -0.000103241 0 -0.000489364 -3.34614e-05 0 -0.000573146 -3.34227e-05 0 -0.000495208
          3.34144e-05 0 -0.000573142 3.33748e-05 0 -0.000495205 0.000106095 0 -0.000566447 0.000103198 0 -0.000489353
          0.000169029 0 -0.000520493 0.000162315 0 -0.000443264 0.000192162 0 -0.000445931 0.000181262 0 -0.000367081
          0.000158325 0 -0.000337095 0.000146222 0 -0.000258749 0 0 -0.000268313 0 0 -0.000191964
          0 0 -0.000149267 -0.000135048 0 -0.000209904 0 -0.000135051 -0.000209903 -0.000146254 -0.000146257 -0.000277566
          -0.00017057 0 -0.000314397 -0.000182763 -0.000169656 -0.000396225 -0.000155827 0 -0.000392551 -0.000165559 -0.00019158 -0.000486793
          -0.000100317 0 -0.000438592 -0.000105787 -0.000206782 -0.000540854 -3.29209e-05 0 -0.000443813 -3.45268e-05 -0.000213858 -0.000549522
          3.28997e-05 0 -0.000443809 3.45057e-05 -0.000213858 -0.000549517 0.000100297 0 -0.000438577 0.000105768 -0.000206781 -0.000540838
          0.000155811 0 -0.000392526 0.000165542 -0.000191579 -0.000486766 0.000170557 0 -0.000314366 0.00018275 -0.000169655 -0.000396191
          0.000135039 0 -0.000209871 0.000146245 -0.000146257 -0.00027753 0 0 -0.000149235 0 -0.000135051 -0.000209869
          0 -0.000170575 -0.000314394 -0.000169653 -0.000182768 -0.000396223 -0.000209921 -0.000209926 -0.000543692 -0.000187305 -0.000236906 -0.000659691
          -0.000117453 -0.000255117 -0.000729616 -3.7723e-05 -0.000262903 -0.000744409 3.77016e-05 -0.000262904 -0.000744404 0.000117434 -0.000255119 -0.000729599
          0.000187288 -0.000236909 -0.000659662 0.000209908 -0.00020993 -0.000543655 0.000169643 -0.000182773 -0.000396183 0 -0.00017058 -0.000314356
          0 -0.000155835 -0.000392543 -0.000191578 -0.000165566 -0.000486786 -0.000236901 -0.000187313 -0.000659687 -0.000207879 -0.000207887 -0.000797514
          -0.000126716 -0.000219513 -0.000878817 -3.95952e-05 -0.000222863 -0.000895966 3.95717e-05 -0.000222865 -0.000895961 0.000126695 -0.000219518 -0.0008788
          0.000207861 -0.000207894 -0.000797486 0.000236887 -0.000187322 -0.000659649 0.000191566 -0.000165576 -0.000486746 0 -0.000155845 -0.000392505
          0 -0.000100326 -0.00043858 -0.000206779 -0.000105797 -0.000540842 -0.000255112 -0.000117463 -0.000729608 -0.000219505 -0.000126726 -0.000878813
          -0.000129198 -0.000129208 -0.000962039 -3.89285e-05 -0.000127675 -0.000975794 3.89013e-05 -0.000127678 -0.000975789 0.000129174 -0.000129216 -0.000962024
          0.000219486 -0.000126738 -0.000878787 0.000255097 -0.000117477 -0.000729573 0.000206768 -0.000105812 -0.000540804 0 -0.000100342 -0.000438543
          0 -3.29318e-05 -0.000443798 -0.000213856 -3.45377e-05 -0.000549506 -0.000262898 -3.77339e-05 -0.000744397 -0.000222855 -3.96062e-05 -0.000895958
          -0.000127665 -3.89398e-05 -0.00097579 -3.73382e-05 -3.73499e-05 -0.000984565 3.7306e-05 -3.73531e-05 -0.000984562 0.000127636 -3.89489e-05 -0.000975777
          0.000222832 -3.96198e-05 -0.000895936 0.000262881 -3.77504e-05 -0.000744365 0.000213844 -3.45553e-05 -0.00054947 0 -3.29498e-05 -0.000443762
          0 3.28884e-05 -0.00044379 -0.000213855 3.44944e-05 -0.000549498 -0.000262898 3.76903e-05 -0.000744388 -0.000222856 3.95603e-05 -0.00089595
          -0.000127667 3.88895e-05 -0.000975782 -3.73407e-05 3.72938e-05 -0.000984559 3.73036e-05 3.72907e-05 -0.000984556 0.000127634 3.88805e-05 -0.000975772
          0.000222831 3.95463e-05 -0.000895931 0.00026288 3.76731e-05 -0.00074436 0.000213843 3.44759e-05 -0.000549465 0 3.28696e-05 -0.000443755
          0 0.000100287 -0.000438557 -0.000206778 0.000105757 -0.000540818 -0.000255113 0.000117423 -0.000729582 -0.00021951 0.000126685 -0.000878788
          -0.000129205 0.000129163 -0.000962016 -3.89357e-05 0.000127625 -0.000975773 3.88942e-05 0.000127622 -0.000975771 0.000129168 0.000129155 -0.000962008
          0.000219481 0.000126672 -0.000878771 0.000255094 0.000117407 -0.000729556 0.000206767 0.00010574 -0.000540786 0 0.000100269 -0.000438523
          0 0.000155802 -0.000392505 -0.000191576 0.000165533 -0.000486745 -0.000236903 0.000187279 -0.000659644 -0.000207885 0.000207852 -0.000797472
          -0.000126725 0.000219476 -0.000878778 -3.9606e-05 0.000222823 -0.000895931 3.95608e-05 0.00022282 -0.000895929 0.000126686 0.00021947 -0.00087877
          0.000207853 0.000207842 -0.000797457 0.000236882 0.000187266 -0.000659621 0.000191564 0.000165519 -0.000486715 0 0.000155787 -0.000392472
          0 0.000170551 -0.000314344 -0.000169652 0.000182743 -0.00039617 -0.000209923 0.000209901 -0.000543636 -0.000187312 0.00023688 -0.000659635
          -0.000117464 0.00025509 -0.000729564 -3.77358e-05 0.000262874 -0.00074436 3.76883e-05 0.000262873 -0.000744358 0.000117422 0.000255086 -0.000729555
          0.000187278 0.000236874 -0.00065962 0.000209901 0.000209892 -0.000543613 0.00016964 0.000182733 -0.000396139 0 0.000170541 -0.00031431
          0 0.000135036 -0.000209848 -0.000146253 0.000146241 -0.000277508 -0.000182766 0.00016964 -0.000396164 -0.000165566 0.000191563 -0.000486731
          -0.000105798 0.000206764 -0.000540794 -3.45403e-05 0.00021384 -0.000549465 3.44917e-05 0.000213839 -0.000549462 0.000105755 0.000206762 -0.000540785
          0.000165531 0.00019156 -0.000486714 0.000182743 0.000169635 -0.000396139 0.000146242 0.000146237 -0.000277475 0 0.000135031 -0.000209811
          0 0 -0.000149211 -0.000135047 0 -0.000209846 -0.000170573 0 -0.000314336 -0.000155835 0 -0.00039249
          -0.000100328 0 -0.000438533 -3.29345e-05 0 -0.000443756 3.28856e-05 0 -0.000443752 0.000100284 0 -0.000438522
          0.0001558 0 -0.000392471 0.00017055 0 -0.000314309 0.000135036 0 -0.000209811 0 0 -0.000149173
          0 0 -0.00012278 -0.000124466 0 -0.000177008 0 -0.000124469 -0.000177007 -0.000135734 -0.000135737 -0.000236361
          -0.000160485 0 -0.000276553 -0.000172573 -0.000159092 -0.000347526 -0.000149434 0 -0.000356037 -0.000159093 -0.000180839 -0.000438624
          -9.74499e-05 0 -0.000402251 -0.000102824 -0.000195872 -0.000492613 -3.21178e-05 0 -0.0004068 -3.36478e-05 -0.000202775 -0.000500445
          3.20952e-05 0 -0.000406796 3.36252e-05 -0.000202775 -0.00050044 9.74292e-05 0 -0.000402237 0.000102803 -0.000195871 -0.000492599
          0.000149417 0 -0.000356014 0.000159075 -0.000180838 -0.0004386 0.000160471 0 -0.000276523 0.000172559 -0.000159092 -0.000347495
          0.000124457 0 -0.000176976 0.000135724 -0.000135737 -0.000236327 0 0 -0.000122749 0 -0.00012447 -0.000176974
          0 -0.000160491 -0.000276549 -0.00015909 -0.000172578 -0.000347523 -0.00019938 -0.000199385 -0.000484494 -0.000180628 -0.00022598 -0.000600626
          -0.000114119 -0.000243779 -0.0006704 -3.65696e-05 -0.000251092 -0.000684006 3.65466e-05 -0.000251093 -0.000684001 0.000114099 -0.000243781 -0.000670385
          0.00018061 -0.000225984 -0.000600601 0.000199365 -0.000199389 -0.000484461 0.000159079 -0.000172584 -0.000347488 0 -0.000160496 -0.000276515
          0 -0.000149442 -0.00035603 -0.000180836 -0.000159101 -0.000438617 -0.000225975 -0.000180637 -0.000600622 -0.000200815 -0.000200823 -0.000739223
          -0.000122492 -0.000211584 -0.000820171 -3.78529e-05 -0.000213926 -0.000835248 3.78278e-05 -0.000213928 -0.000835244 0.000122469 -0.00021159 -0.000820157
          0.000200796 -0.000200831 -0.000739199 0.00022596 -0.000180646 -0.000600591 0.000180825 -0.000159112 -0.000438582 0 -0.000149453 -0.000355995
          0 -9.746e-05 -0.000402239 -0.000195869 -0.000102834 -0.000492602 -0.000243773 -0.000114129 -0.000670391 -0.000211576 -0.000122502 -0.000820166
          -0.000123368 -0.000123378 -0.000901523 -3.62634e-05 -0.000120323 -0.000911299 3.62343e-05 -0.000120326 -0.000911296 0.000123342 -0.000123386 -0.000901511
          0.000211555 -0.000122513 -0.000820146 0.000243757 -0.000114143 -0.000670364 0.000195857 -0.000102849 -0.00049257 0 -9.74751e-05 -0.000402206
          0 -3.21291e-05 -0.000406785 -0.000202773 -3.36591e-05 -0.000500429 -0.000251087 -3.65809e-05 -0.000683993 -0.000213918 -3.78644e-05 -0.00083524
          -0.000120312 -3.6275e-05 -0.000911296 -3.38734e-05 -3.38855e-05 -0.000914213 3.38394e-05 -3.38887e-05 -0.000914211 0.000120282 -3.6284e-05 -0.000911287
          0.000213894 -3.78779e-05 -0.000835223 0.000251069 -3.65973e-05 -0.000683969 0.000202761 -3.36766e-05 -0.0005004 0 -3.2147e-05 -0.000406753
          0 3.20836e-05 -0.000406777 -0.000202772 3.36136e-05 -0.000500422 -0.000251087 3.6535e-05 -0.000683986 -0.000213919 3.7816e-05 -0.000835233
          -0.000120314 3.62223e-05 -0.00091129 -3.38759e-05 3.38269e-05 -0.000914208 3.3837e-05 3.38239e-05 -0.000914207 0.00012028 3.62135e-05 -0.000911283
          0.000213892 3.78024e-05 -0.000835219 0.000251068 3.65181e-05 -0.000683965 0.00020276 3.35954e-05 -0.000500394 0 3.20651e-05 -0.000406747
          0 9.74184e-05 -0.000402217 -0.000195868 0.000102792 -0.000492579 -0.000243775 0.000114088 -0.000670368 -0.00021158 0.000122458 -0.000820145
          -0.000123374 0.000123331 -0.000901504 -3.62705e-05 0.000120271 -0.000911283 3.62274e-05 0.000120268 -0.000911282 0.000123336 0.000123323 -0.000901498
          0.00021155 0.000122446 -0.000820133 0.000243754 0.000114072 -0.000670349 0.000195856 0.000102775 -0.000492553 0 9.7401e-05 -0.000402187
          0 0.000149408 -0.000355993 -0.000180835 0.000159066 -0.000438579 -0.000225977 0.000180601 -0.000600584 -0.000200821 0.000200787 -0.000739186
          -0.000122501 0.000211545 -0.000820138 -3.78636e-05 0.000213884 -0.000835219 3.78171e-05 0.000213882 -0.000835217 0.000122459 0.000211539 -0.000820132
          0.000200788 0.000200777 -0.000739175 0.000225955 0.000180588 -0.000600565 0.000180823 0.000159052 -0.000438553 0 0.000149393 -0.000355963
          0 0.000160465 -0.000276502 -0.000159088 0.000172552 -0.000347473 -0.000199382 0.000199359 -0.000484443 -0.000180636 0.000225953 -0.000600577
          -0.00011413 0.00024375 -0.000670355 -3.65823e-05 0.000251062 -0.000683964 3.65335e-05 0.000251061 -0.000683962 0.000114086 0.000243746 -0.000670348
          0.000180601 0.000225947 -0.000600565 0.000199359 0.00019935 -0.000484424 0.000159077 0.000172543 -0.000347446 0 0.000160455 -0.00027647
          0 0.000124454 -0.000176953 -0.000135733 0.000135721 -0.000236305 -0.000172576 0.000159076 -0.000347469 -0.000159101 0.000180821 -0.000438568
          -0.000102835 0.000195854 -0.00049256 -3.36612e-05 0.000202757 -0.000500394 3.36114e-05 0.000202757 -0.000500392 0.00010279 0.000195852 -0.000492551
          0.000159065 0.000180819 -0.000438552 0.000172552 0.000159072 -0.000347446 0.000135722 0.000135717 -0.000236275 0 0.000124449 -0.000176918
          0 0 -0.000122726 -0.000124466 0 -0.000176952 -0.000160489 0 -0.000276495 -0.000149442 0 -0.00035598
          -9.74613e-05 0 -0.000402196 -3.21313e-05 0 -0.000406747 3.20813e-05 0 -0.000406744 9.74163e-05 0 -0.000402185
          0.000149406 0 -0.000355962 0.000160464 0 -0.000276469 0.000124454 0 -0.000176918 0 0 -0.000122689
          0 0 -0.00010473 -0.000114584 0 -0.00015335 0 -0.000114587 -0.000153349 -0.000125763 -0.000125766 -0.000205532
          -0.000151077 0 -0.000247678 -0.000163255 -0.000149124 -0.0003091 -0.000143262 0 -0.00032758 -0.000153076 -0.000171116 -0.000399565
          -9.46268e-05 0 -0.000374199 -0.000100013 -0.000186316 -0.000453568 -3.11297e-05 0 -0.000377933 -3.25932e-05 -0.000193165 -0.000460301
          3.11057e-05 0 -0.000377929 3.2569e-05 -0.000193165 -0.000460297 9.46048e-05 0 -0.000374186 9.99911e-05 -0.000186316 -0.000453554
          0.000143244 0 -0.000327558 0.000153057 -0.000171116 -0.000399543 0.000151062 0 -0.000247651 0.000163241 -0.000149124 -0.000309072
          0.000114575 0 -0.00015332 0.000125754 -0.000125767 -0.000205501 0 0 -0.0001047 0 -0.000114588 -0.000153318
          0 -0.000151083 -0.000247675 -0.000149121 -0.000163261 -0.000309097 -0.000190342 -0.000190348 -0.000435239 -0.000174969 -0.000217337 -0.000549882
          -0.000111129 -0.000235146 -0.000619402 -3.52082e-05 -0.000242028 -0.00063131 3.51834e-05 -0.000242029 -0.000631306 0.000111107 -0.000235149 -0.00061939
          0.00017495 -0.000217341 -0.000549861 0.000190327 -0.000190353 -0.000435211 0.00014911 -0.000163267 -0.000309066 0 -0.000151089 -0.000247643
          0 -0.000143271 -0.000327573 -0.000171113 -0.000153085 -0.000399558 -0.000217331 -0.000174978 -0.000549878 -0.000195267 -0.000195276 -0.000687502
          -0.000118499 -0.000205134 -0.000767868 -3.56736e-05 -0.000206088 -0.00077992 3.56465e-05 -0.00020609 -0.000779917 0.000118475 -0.00020514 -0.000767857
          0.000195247 -0.000195284 -0.000687483 0.000217315 -0.000174988 -0.000549853 0.000171102 -0.000153095 -0.000399528 0 -0.000143282 -0.000327541
          0 -9.46374e-05 -0.000374187 -0.000186313 -0.000100024 -0.000453556 -0.00023514 -0.00011114 -0.000619394 -0.000205126 -0.00011851 -0.000767863
          -0.000117055 -0.000117066 -0.000846492 -3.26608e-05 -0.000111656 -0.000850397 3.26296e-05 -0.000111659 -0.000850395 0.000117028 -0.000117074 -0.000846484
          0.000205103 -0.000118521 -0.000767848 0.000235123 -0.000111154 -0.000619372 0.000186301 -0.000100039 -0.000453529 0 -9.46526e-05 -0.000374157
          0 -3.11414e-05 -0.000377917 -0.000193162 -3.26049e-05 -0.000460285 -0.000242022 -3.52199e-05 -0.000631298 -0.000206079 -3.56854e-05 -0.000779912
          -0.000111645 -3.26728e-05 -0.000850394 -2.89918e-05 -2.90043e-05 -0.000844555 2.89557e-05 -2.90075e-05 -0.000844553 0.000111613 -3.26817e-05 -0.000850388
          0.000206054 -3.56988e-05 -0.0007799 0.000242003 -3.52362e-05 -0.00063128 0.000193151 -3.26222e-05 -0.000460261 0 -3.11591e-05 -0.000377889
          0 3.10938e-05 -0.000377911 -0.000193162 3.25572e-05 -0.000460279 -0.000242022 3.51716e-05 -0.000631291 -0.000206081 3.56345e-05 -0.000779906
          -0.000111647 3.26173e-05 -0.000850389 -2.89943e-05 2.8943e-05 -0.000844551 2.89534e-05 2.89401e-05 -0.00084455 0.000111611 3.26088e-05 -0.000850385
          0.000206052 3.56211e-05 -0.000779897 0.000242002 3.5155e-05 -0.000631275 0.000193151 3.25392e-05 -0.000460256 0 3.10756e-05 -0.000377883
          0 9.45938e-05 -0.000374166 -0.000186312 9.99801e-05 -0.000453535 -0.000235142 0.000111096 -0.000619374 -0.00020513 0.000118464 -0.000767845
          -0.000117061 0.000117016 -0.000846477 -3.26678e-05 0.000111602 -0.000850385 3.26229e-05 0.000111599 -0.000850384 0.000117022 0.000117009 -0.000846473
          0.000205098 0.000118451 -0.000767836 0.00023512 0.00011108 -0.000619358 0.000186301 9.99633e-05 -0.000453513 0 9.45767e-05 -0.000374139
          0 0.000143234 -0.000327538 -0.000171112 0.000153048 -0.000399523 -0.000217333 0.000174941 -0.000549844 -0.000195273 0.000195237 -0.000687471
          -0.000118508 0.000205093 -0.00076784 -3.56841e-05 0.000206044 -0.000779896 3.56361e-05 0.000206042 -0.000779895 0.000118465 0.000205087 -0.000767836
          0.000195239 0.000195227 -0.000687461 0.00021731 0.000174928 -0.000549829 0.000171101 0.000153034 -0.0003995 0 0.00014322 -0.00032751
          0 0.000151056 -0.00024763 -0.00014912 0.000163234 -0.000309051 -0.000190346 0.000190321 -0.000435194 -0.000174976 0.000217308 -0.00054984
          -0.00011114 0.000235116 -0.000619364 -3.52208e-05 0.000241996 -0.000631275 3.51707e-05 0.000241995 -0.000631273 0.000111095 0.000235112 -0.000619358
          0.00017494 0.000217302 -0.000549828 0.000190321 0.000190313 -0.000435176 0.000149109 0.000163225 -0.000309026 0 0.000151046 -0.0002476
          0 0.000114571 -0.000153298 -0.000125763 0.00012575 -0.00020548 -0.000163259 0.000149107 -0.000309048 -0.000153084 0.000171098 -0.000399514
          -0.000100024 0.000186298 -0.00045352 -3.26064e-05 0.000193147 -0.000460256 3.25555e-05 0.000193147 -0.000460253 9.99785e-05 0.000186297 -0.000453512
          0.000153047 0.000171096 -0.000399499 0.000163234 0.000149104 -0.000309025 0.000125751 0.000125746 -0.00020545 0 0.000114567 -0.000153264
          0 0 -0.000104678 -0.000114584 0 -0.000153296 -0.000151081 0 -0.000247625 -0.00014327 0 -0.000327527
          -9.46382e-05 0 -0.000374148 -3.1143e-05 0 -0.000377883 3.1092e-05 0 -0.00037788 9.45921e-05 0 -0.000374138
          0.000143233 0 -0.000327509 0.000151056 0 -0.000247599 0.000114572 0 -0.000153264 0 0 -0.000104641
          0 0 -9.13726e-05 -0.000105542 0 -0.000135342 0 -0.000105545 -0.000135342 -0.000116474 -0.000116478 -0.000181708
          -0.00014231 0 -0.000224513 -0.000154641 -0.000139741 -0.000278118 -0.000137397 0 -0.000303907 -0.000147534 -0.000162209 -0.000366984
          -9.18709e-05 0 -0.000351091 -9.73528e-05 -0.000177828 -0.000421097 -3.00395e-05 0 -0.000353842 -3.14331e-05 -0.000184703 -0.000426466
          3.0014e-05 0 -0.000353838 3.14073e-05 -0.000184703 -0.000426462 9.18475e-05 0 -0.000351079 9.73292e-05 -0.000177828 -0.000421086
          0.000137377 0 -0.000303887 0.000147514 -0.000162209 -0.000366964 0.000142295 0 -0.000224487 0.000154626 -0.000139741 -0.000278093
          0.000105533 0 -0.000135313 0.000116465 -0.000116479 -0.000181679 0 0 -9.13434e-05 0 -0.000105547 -0.000135312
          0 -0.000142317 -0.00022451 -0.000139737 -0.000154648 -0.000278115 -0.000182384 -0.000182391 -0.000394057 -0.000170295 -0.000210426 -0.000506062
          -0.000108457 -0.000228672 -0.000575363 -3.3682e-05 -0.00023515 -0.000585059 3.36554e-05 -0.000235151 -0.000585056 0.000108432 -0.000228675 -0.000575352
          0.000170274 -0.000210431 -0.000506044 0.000182368 -0.000182396 -0.000394033 0.000139727 -0.000154654 -0.000278088 0 -0.000142323 -0.00022448
          0 -0.000137406 -0.0003039 -0.000162205 -0.000147543 -0.000366977 -0.00021042 -0.000170304 -0.000506058 -0.000191261 -0.00019127 -0.000641594
          -0.000114694 -0.000200229 -0.000721385 -3.30435e-05 -0.000199351 -0.000729357 3.30143e-05 -0.000199353 -0.000729355 0.000114668 -0.000200235 -0.000721377
          0.000191239 -0.000191279 -0.000641578 0.000210403 -0.000170314 -0.000506037 0.000162195 -0.000147554 -0.00036695 0 -0.000137417 -0.00030387
          0 -9.1882e-05 -0.00035108 -0.000177824 -9.73639e-05 -0.000421086 -0.000228666 -0.000108468 -0.000575354 -0.00020022 -0.000114705 -0.000721381
          -0.000110062 -0.000110073 -0.000796549 -2.79684e-05 -0.000101245 -0.000792204 2.79349e-05 -0.000101248 -0.000792203 0.000110033 -0.000110081 -0.000796543
          0.000200196 -0.000114717 -0.000721368 0.000228648 -0.000108482 -0.000575336 0.000177814 -9.73788e-05 -0.000421062 0 -9.18971e-05 -0.000351052
          0 -3.00516e-05 -0.000353827 -0.0001847 -3.14452e-05 -0.000426451 -0.000235143 -3.36941e-05 -0.000585047 -0.000199341 -3.30557e-05 -0.000729349
          -0.000101233 -2.79808e-05 -0.000792201 -2.23902e-05 -2.24031e-05 -0.000773714 2.23518e-05 -2.24062e-05 -0.000773714 0.0001012 -2.79897e-05 -0.000792197
          0.000199315 -3.3069e-05 -0.00072934 0.000235124 -3.37103e-05 -0.000585032 0.000184689 -3.14624e-05 -0.000426429 0 -3.00692e-05 -0.0003538
          0 3.00019e-05 -0.000353821 -0.0001847 3.13952e-05 -0.000426445 -0.000235144 3.36433e-05 -0.000585041 -0.000199343 3.3002e-05 -0.000729344
          -0.000101236 2.79224e-05 -0.000792197 -2.23927e-05 2.23388e-05 -0.000773712 2.23496e-05 2.2336e-05 -0.000773712 0.000101198 2.79142e-05 -0.000792195
          0.000199313 3.29891e-05 -0.000729337 0.000235123 3.36271e-05 -0.000585028 0.000184689 3.13776e-05 -0.000426424 0 2.99839e-05 -0.000353795
          0 9.18363e-05 -0.00035106 -0.000177824 9.73181e-05 -0.000421067 -0.000228668 0.000108421 -0.000575336 -0.000200224 0.000114657 -0.000721365