<?xml version="1.0"?>
<VTKFile type="UnstructuredGrid" version="0.1" byte_order="LittleEndian">
  <UnstructuredGrid>
    <Piece NumberOfCells="3025" NumberOfPoints="3744">
      <PointData Vectors="disp">
        <DataArray type="Float32" Name="disp" NumberOfComponents="3" format="ascii">
          0 0 -0.000247444 -0.000134433 0 -0.000319539 0 -0.000134425 -0.000319541 -0.000143562 -0.000143554 -0.000400937
          0 0 -0.000173943 -0.000121677 0 -0.000244232 0 -0.000121669 -0.000244234 -0.000130125 -0.000130117 -0.000323333
          -0.000141016 0 -0.000434502 -0.000148159 -0.000159828 -0.000531314 -0.000129936 0 -0.000359383 -0.000136293 -0.000144923 -0.000453852
          -8.50485e-05 0 -0.000501202 -8.49575e-05 -0.000166882 -0.000606449 -8.16694e-05 0 -0.000428785 -8.14857e-05 -0.000151097 -0.000532394
          -5.08503e-06 0 -0.000496294 5.91724e-07 -0.000161115 -0.000602541 -1.05253e-05 0 -0.000422966 -5.14898e-06 -0.000145538 -0.000527755
          1.66209e-05 0 -0.000426084 2.0131e-05 -0.000151929 -0.000529709 1.13873e-05 0 -0.000348107 1.47027e-05 -0.000136847 -0.000450044
          -1.66251e-05 0 -0.000426099 -2.01362e-05 -0.000151932 -0.000529724 -1.13889e-05 0 -0.000348122 -1.47051e-05 -0.000136849 -0.00045006
          5.09532e-06 0 -0.00049632 -5.8089e-07 -0.000161121 -0.00060257 1.05357e-05 0 -0.000422993 5.16006e-06 -0.000145543 -0.000527784
          8.50659e-05 0 -0.000501222 8.49766e-05 -0.000166888 -0.000606471 8.1686e-05 0 -0.000428805 8.15039e-05 -0.000151102 -0.000532416
          0.000141028 0 -0.000434518 0.000148174 -0.000159833 -0.000531331 0.000129949 0 -0.000359398 0.000136307 -0.000144927 -0.000453869
          0.000134439 0 -0.000319557 0.000143569 -0.000143558 -0.000400956 0.000121683 0 -0.00024425 0.000130132 -0.00013012 -0.000323352
          0 0 -0.000247464 0 -0.000134428 -0.000319562 0 0 -0.000173962 0 -0.000121672 -0.000244254
          0 -0.000140999 -0.000434506 -0.000159836 -0.000148143 -0.000531317 0 -0.000129919 -0.000359387 -0.000144931 -0.000136276 -0.000453856
          -0.000157306 -0.000157291 -0.000686835 -0.000144217 -0.000144201 -0.000610393 -7.46327e-05 -0.000149061 -0.000772154 -7.16883e-05 -0.000136156 -0.000700403
          2.3899e-05 -0.000121198 -0.000760713 1.68029e-05 -0.000109968 -0.000687992 3.27176e-05 -9.44925e-05 -0.000674643 2.65725e-05 -8.48403e-05 -0.000595877
          -3.27265e-05 -9.44975e-05 -0.000674661 -2.65782e-05 -8.48451e-05 -0.000595896 -2.38875e-05 -0.000121209 -0.000760748 -1.6791e-05 -0.00010998 -0.000688028
          7.46559e-05 -0.000149073 -0.000772182 7.17107e-05 -0.000136168 -0.000700431 0.000157325 -0.000157301 -0.000686856 0.000144235 -0.00014421 -0.000610413
          0.000159844 -0.000148151 -0.000531339 0.000144939 -0.000136283 -0.000453877 0 -0.000141005 -0.000434531 0 -0.000129925 -0.000359411
          0 -8.50256e-05 -0.00050121 -0.000166889 -8.49349e-05 -0.000606456 0 -8.16461e-05 -0.000428793 -0.000151104 -8.14625e-05 -0.000532401
          -0.000149075 -7.46108e-05 -0.000772158 -0.000136171 -7.1666e-05 -0.000700406 -3.87104e-05 -3.86896e-05 -0.00084806 -3.80458e-05 -3.80245e-05 -0.000781186
          7.31415e-05 1.86095e-05 -0.000805003 6.31392e-05 1.5764e-05 -0.000734976 5.66468e-05 6.50726e-05 -0.000687556 4.91623e-05 5.95584e-05 -0.000608513
          -5.66636e-05 6.50655e-05 -0.000687579 -4.9175e-05 5.95517e-05 -0.000608537 -7.31308e-05 1.85923e-05 -0.000805049 -6.31277e-05 1.57479e-05 -0.000735024
          3.8739e-05 -3.87082e-05 -0.000848099 3.80733e-05 -3.80417e-05 -0.000781225 0.0001491 -7.46255e-05 -0.000772187 0.000136195 -7.16795e-05 -0.000700435
          0.000166901 -8.49454e-05 -0.000606484 0.000151116 -8.14721e-05 -0.000532428 0 -8.50344e-05 -0.00050124 0 -8.1654e-05 -0.000428823
          0 -5.05781e-06 -0.000496307 -0.000161122 6.18735e-07 -0.000602553 0 -1.04974e-05 -0.000422979 -0.000145545 -5.1213e-06 -0.000527766
          -0.000121211 2.3925e-05 -0.000760722 -0.000109983 1.68296e-05 -0.000688001 1.85897e-05 7.31663e-05 -0.000805008 1.57438e-05 6.31648e-05 -0.000734981
          0.000139216 0.00013924 -0.000708633 0.000125526 0.00012555 -0.000630591 8.69726e-05 0.000189174 -0.000546217 7.78968e-05 0.000172874 -0.000454343
          -8.69991e-05 0.000189167 -0.000546247 -7.79183e-05 0.000172867 -0.000454375 -0.000139208 0.000139224 -0.000708694 -0.000125516 0.000125535 -0.000630655
          -1.8556e-05 7.31483e-05 -0.000805063 -1.57111e-05 6.31481e-05 -0.000735037 0.000121242 2.39106e-05 -0.000760764 0.000110013 1.68166e-05 -0.000688042
          0.000161137 6.08469e-07 -0.000602591 0.00014556 -5.13036e-06 -0.000527804 0 -5.06614e-06 -0.000496346 0 -1.05046e-05 -0.000423018
          0 1.66503e-05 -0.000426104 -0.000151936 2.01603e-05 -0.000529728 0 1.14175e-05 -0.000348127 -0.000136854 1.47328e-05 -0.000450062
          -9.45056e-05 3.27459e-05 -0.000674659 -8.48538e-05 2.66017e-05 -0.000595892 6.50539e-05 5.6674e-05 -0.000687568 5.95392e-05 4.91903e-05 -0.000608526
          0.000189152 8.69985e-05 -0.000546225 0.000172851 7.79235e-05 -0.000454351 0.00010926 0.000109284 -0.000348314 9.90905e-05 9.9116e-05 -0.000238411
          -0.000109292 0.000109282 -0.000348348 -9.9117e-05 9.91138e-05 -0.000238447 -0.000189144 8.69928e-05 -0.000546297 -0.000172841 7.79183e-05 -0.000454427
          -6.50164e-05 5.66683e-05 -0.000687636 -5.95027e-05 4.91852e-05 -0.000608595 9.4541e-05 3.27423e-05 -0.000674713 8.48884e-05 2.65988e-05 -0.000595947
          0.000151954 2.0159e-05 -0.000529777 0.000136872 1.47322e-05 -0.000450111 0 1.66502e-05 -0.000426154 0 1.14182e-05 -0.000348176
          0 -1.65955e-05 -0.000426125 -0.000151938 -2.01068e-05 -0.00052975 0 -1.13585e-05 -0.000348148 -0.000136856 -1.46749e-05 -0.000450085
          -9.451e-05 -3.26979e-05 -0.000674684 -8.48579e-05 -2.65488e-05 -0.000595918 6.50475e-05 -5.6636e-05 -0.000687599 5.95333e-05 -4.91466e-05 -0.000608557
          0.000189146 -8.69725e-05 -0.000546262 0.000172845 -7.7891e-05 -0.00045439 0.000109258 -0.000109266 -0.000348356 9.90893e-05 -9.90909e-05 -0.000238455
          -0.000109287 -0.000109263 -0.00034839 -9.91121e-05 -9.90871e-05 -0.000238492 -0.000189135 -8.69626e-05 -0.000546334 -0.000172833 -7.78814e-05 -0.000454466
          -6.50084e-05 -5.66237e-05 -0.000687667 -5.9495e-05 -4.91348e-05 -0.000608627 9.45464e-05 -3.26856e-05 -0.00067474 8.48935e-05 -2.65368e-05 -0.000595974
          0.000151957 -2.00949e-05 -0.000529801 0.000136874 -1.46632e-05 -0.000450136 0 -1.65835e-05 -0.000426178 0 -1.13466e-05 -0.0003482
          0 5.12249e-06 -0.000496354 -0.000161127 -5.53889e-07 -0.000602602 0 1.05637e-05 -0.000423026 -0.000145549 5.18784e-06 -0.000527816
          -0.000121221 -2.3861e-05 -0.000760778 -0.000109992 -1.67637e-05 -0.000688057 1.85751e-05 -7.3105e-05 -0.000805076 1.57303e-05 -6.31012e-05 -0.00073505
          0.000139203 -0.000139183 -0.000708717 0.000125514 -0.00012549 -0.000630677 8.69703e-05 -0.00018912 -0.000546313 7.7895e-05 -0.000172816 -0.000454443
          -8.69856e-05 -0.000189112 -0.000546342 -7.79052e-05 -0.000172809 -0.000454473 -0.000139186 -0.000139164 -0.000708778 -0.000125495 -0.000125472 -0.00063074
          -1.85361e-05 -7.30833e-05 -0.000805134 -1.5692e-05 -6.30804e-05 -0.000735109 0.000121255 -2.38411e-05 -0.000760826 0.000110025 -1.67445e-05 -0.000688105
          0.000161144 -5.36144e-07 -0.000602649 0.000145566 5.20515e-06 -0.000527862 0 5.13955e-06 -0.000496403 0 1.05804e-05 -0.000423075
          0 8.50887e-05 -0.000501263 -0.000166893 8.49992e-05 -0.000606511 0 8.17095e-05 -0.000428845 -0.000151108 8.15273e-05 -0.000532455
          -0.000149084 7.46783e-05 -0.000772219 -0.00013618 7.17337e-05 -0.000700467 -3.87246e-05 3.8761e-05 -0.000848133 -3.80586e-05 3.8096e-05 -0.000781258
          7.31285e-05 -1.85347e-05 -0.000805093 6.31277e-05 -1.5689e-05 -0.000735066 5.66468e-05 -6.49958e-05 -0.000687659 4.91629e-05 -5.94814e-05 -0.000608618
          -5.66455e-05 -6.49887e-05 -0.000687682 -4.91573e-05 -5.94747e-05 -0.000608642 -7.31035e-05 -1.85176e-05 -0.000805141 -6.31015e-05 -1.56728e-05 -0.000735116
          3.8763e-05 3.87802e-05 -0.000848179 3.80965e-05 3.81144e-05 -0.000781304 0.000149115 7.46953e-05 -0.000772261 0.00013621 7.17503e-05 -0.000700508
          0.000166908 8.5014e-05 -0.000606555 0.000151124 8.15419e-05 -0.000532498 0 8.51027e-05 -0.000501312 0 8.17236e-05 -0.000428893
          0 0.000141046 -0.000434564 -0.000159838 0.000148191 -0.000531377 0 0.000129966 -0.000359444 -0.000144932 0.000136324 -0.000453913
          -0.000157311 0.000157342 -0.000686898 -0.000144222 0.000144253 -0.000610455 -7.46412e-05 0.000149116 -0.000772226 -7.16957e-05 0.000136212 -0.000700473
          2.38916e-05 0.000121259 -0.000760798 1.67969e-05 0.000110029 -0.000688076 3.27217e-05 9.45569e-05 -0.00067474 2.65773e-05 8.49046e-05 -0.000595974
          -3.27064e-05 9.45616e-05 -0.00067476 -2.65584e-05 8.49091e-05 -0.000595994 -2.38602e-05 0.00012127 -0.000760839 -1.67645e-05 0.00011004 -0.000688117
          7.46791e-05 0.000149129 -0.000772267 7.17334e-05 0.000136224 -0.000700513 0.00015734 0.000157352 -0.000686939 0.00014425 0.000144263 -0.000610495
          0.000159852 0.000148201 -0.000531423 0.000144947 0.000136334 -0.000453959 0 0.000141055 -0.000434616 0 0.000129976 -0.000359494
          0 0.000134448 -0.000319605 -0.000143563 0.000143578 -0.000401003 0 0.000121693 -0.000244297 -0.000130126 0.000130142 -0.000323398
          -0.000148161 0.000159854 -0.000531383 -0.000136294 0.000144949 -0.000453919 -8.49608e-05 0.00016691 -0.000606523 -8.1488e-05 0.000151126 -0.000532467
          5.89795e-07 0.000161147 -0.000602626 -5.14967e-06 0.00014557 -0.000527838 2.01387e-05 0.000151963 -0.000529805 1.47112e-05 0.000136881 -0.000450138
          -2.01152e-05 0.000151966 -0.000529822 -1.46843e-05 0.000136883 -0.000450156 -5.54751e-07 0.000161152 -0.000602663 5.18573e-06 0.000145575 -0.000527875
          8.49984e-05 0.000166916 -0.000606562 8.15256e-05 0.000151131 -0.000532505 0.000148189 0.000159859 -0.000531424 0.000136322 0.000144954 -0.00045396
          0.000143576 0.000143583 -0.000401052 0.00013014 0.000130147 -0.000323445 0 0.000134453 -0.000319659 0 0.000121698 -0.000244349
          0 0 -0.000247512 -0.000134433 0 -0.000319609 0 0 -0.00017401 -0.000121677 0 -0.0002443
          -0.000141016 0 -0.000434574 -0.000129936 0 -0.000359453 -8.50499e-05 0 -0.000501279 -8.16699e-05 0 -0.000428861
          -5.08493e-06 0 -0.000496381 -1.0524e-05 0 -0.000423052 1.66299e-05 0 -0.000426182 1.13971e-05 0 -0.000348203
          -1.66038e-05 0 -0.000426199 -1.13677e-05 0 -0.000348221 5.12103e-06 0 -0.000496417 1.05611e-05 0 -0.000423088
          8.50872e-05 0 -0.000501318 8.17074e-05 0 -0.000428899 0.000141043 0 -0.000434616 0.000129963 0 -0.000359494
          0.000134446 0 -0.000319658 0.000121691 0 -0.000244349 0 0 -0.000247566 0 0 -0.000174063
          0 0 -0.000134128 -0.000109942 0 -0.000198351 0 -0.000109934 -0.000198352 -0.000118547 -0.000118538 -0.000269558
          -0.000119491 0 -0.000310025 -0.00012578 -0.000133432 -0.000394595 -7.92748e-05 0 -0.000382069 -7.94103e-05 -0.000139858 -0.000475626
          -1.52683e-05 0 -0.000375728 -1.01759e-05 -0.000134903 -0.000470302 7.69392e-06 0 -0.000297272 1.09459e-05 -0.00012656 -0.000388598
          -7.69308e-06 0 -0.000297288 -1.09456e-05 -0.000126562 -0.000388614 1.52793e-05 0 -0.000375755 1.01875e-05 -0.000134908 -0.000470332
          7.92907e-05 0 -0.000382089 7.94279e-05 -0.000139864 -0.000475647 0.000119503 0 -0.00031004 0.000125794 -0.000133436 -0.000394611
          0.000109949 0 -0.000198367 0.000118554 -0.000118541 -0.000269576 0 0 -0.000134146 0 -0.000109936 -0.000198372
          0 -0.000119474 -0.000310029 -0.000133441 -0.000125764 -0.000394598 -0.000133907 -0.00013389 -0.000544027 -7.07908e-05 -0.000126973 -0.000637119
          1.09858e-05 -0.00010215 -0.000623525 2.26949e-05 -7.75854e-05 -0.00052599 -2.26977e-05 -7.759e-05 -0.000526009 -1.0973e-05 -0.000102161 -0.000623561
          7.08126e-05 -0.000126984 -0.000637147 0.000133924 -0.000133899 -0.000544047 0.00013345 -0.00012577 -0.000394619 0 -0.000119479 -0.000310052
          0 -7.92509e-05 -0.000382077 -0.000139866 -7.93866e-05 -0.000475632 -0.000126988 -7.0768e-05 -0.000637123 -3.89999e-05 -3.89781e-05 -0.000721413
          5.66629e-05 1.36644e-05 -0.000671669 4.54237e-05 5.75022e-05 -0.000536259 -4.54333e-05 5.74956e-05 -0.000536284 -5.665e-05 1.36488e-05 -0.000671718
          3.90272e-05 -3.89944e-05 -0.000721452 0.000127012 -7.07804e-05 -0.000637151 0.000139878 -7.93952e-05 -0.000475659 0 -7.92579e-05 -0.000382106
          0 -1.52397e-05 -0.00037574 -0.00013491 -1.01475e-05 -0.000470314 -0.000102165 1.10133e-05 -0.000623534 1.36437e-05 5.66892e-05 -0.000671675
          0.000119601 0.000119626 -0.000557861 7.49003e-05 0.0001682 -0.000366499 -7.49186e-05 0.000168193 -0.000366532 -0.000119589 0.000119611 -0.000557928
          -1.36108e-05 5.66731e-05 -0.000671731 0.000102194 1.10012e-05 -0.000623575 0.000134925 -1.01555e-05 -0.000470351 0 -1.52459e-05 -0.000375779
          0 7.725e-06 -0.000297291 -0.000126567 1.09767e-05 -0.000388616 -7.75993e-05 2.27248e-05 -0.000526005 5.74825e-05 4.54525e-05 -0.000536271
          0.000168176 7.49279e-05 -0.000366506 9.69704e-05 9.69969e-05 -0.000129824 -9.69939e-05 9.69946e-05 -0.000129863 -0.000168164 7.49227e-05 -0.000366587
          -5.74454e-05 4.54477e-05 -0.000536343 7.76336e-05 2.27224e-05 -0.00052606 0.000126585 1.09767e-05 -0.000388664 0 7.7262e-06 -0.00029734
          0 -7.66192e-06 -0.000297313 -0.000126568 -1.09147e-05 -0.000388639 -7.76032e-05 -2.26675e-05 -0.000526032 5.74767e-05 -4.5404e-05 -0.000536303
          0.00016817 -7.48904e-05 -0.000366547 9.69692e-05 -9.69668e-05 -0.000129871 -9.69888e-05 -9.69629e-05 -0.00012991 -0.000168156 -7.48806e-05 -0.000366627
          -5.74379e-05 -4.53921e-05 -0.000536376 7.76386e-05 -2.26555e-05 -0.000526087 0.000126587 -1.09029e-05 -0.000388689 0 -7.65002e-06 -0.000297365
          0 1.5308e-05 -0.000375787 -0.000134914 1.02161e-05 -0.000470363 -0.000102173 -1.0945e-05 -0.00062359 1.36307e-05 -5.66227e-05 -0.000671745
          0.000119589 -0.000119563 -0.00055795 7.48985e-05 -0.000168139 -0.000366602 -7.49053e-05 -0.000168131 -0.000366634 -0.000119568 -0.000119545 -0.000558015
          -1.35921e-05 -5.66021e-05 -0.000671803 0.000102207 -1.09261e-05 -0.000623637 0.000134931 1.02331e-05 -0.000470408 0 1.53245e-05 -0.000375835
          0 7.9315e-05 -0.000382128 -0.00013987 7.9452e-05 -0.000475685 -0.000126996 7.08364e-05 -0.000637182 -3.90117e-05 3.90505e-05 -0.000721484
          5.6652e-05 -1.35881e-05 -0.00067176 4.54246e-05 -5.74234e-05 -0.000536365 -4.54155e-05 -5.74168e-05 -0.00053639 -5.66241e-05 -1.35721e-05 -0.000671811
          3.90498e-05 3.90685e-05 -0.00072153 0.000127026 7.08525e-05 -0.000637223 0.000139886 7.94665e-05 -0.000475728 0 7.9329e-05 -0.000382174
          0 0.000119521 -0.000310084 -0.000133442 0.000125812 -0.000394655 -0.00013391 0.000133942 -0.000544088 -7.0797e-05 0.000127029 -0.000637188
          1.09809e-05 0.000102211 -0.000623608 2.27001e-05 7.76502e-05 -0.000526087 -2.26779e-05 7.76546e-05 -0.000526107 -1.09469e-05 0.000102222 -0.000623649
          7.08349e-05 0.00012704 -0.000637228 0.000133939 0.000133953 -0.000544127 0.000133457 0.000125822 -0.000394699 0 0.000119531 -0.000310133
          0 0.000109959 -0.000198414 -0.000118547 0.000118563 -0.000269621 -0.000125781 0.000133459 -0.000394661 -7.94116e-05 0.000139888 -0.000475697
          -1.01755e-05 0.000134935 -0.000470385 1.09549e-05 0.000126594 -0.000388692 -1.09249e-05 0.000126596 -0.00038871 1.02129e-05 0.00013494 -0.000470422
          7.94494e-05 0.000139893 -0.000475734 0.000125809 0.000133465 -0.0003947 0.000118562 0.000118569 -0.000269667 0 0.000109964 -0.000198465
          0 0 -0.000134193 -0.000109942 0 -0.000198417 -0.00011949 0 -0.000310093 -7.92743e-05 0 -0.000382143
          -1.52659e-05 0 -0.000375811 7.70432e-06 0 -0.000297367 -7.67193e-06 0 -0.000297384 1.53044e-05 0 -0.000375847
          7.9312e-05 0 -0.00038218 0.000119518 0 -0.000310134 0.000109957 0 -0.000198464 0 0 -0.000134244
          0 0 -0.000110705 -9.89569e-05 0 -0.000168516 0 -9.89479e-05 -0.000168517 -0.00010778 -0.000107772 -0.000231333
          -0.000110073 0 -0.000275223 -0.000116766 -0.000123288 -0.000348806 -7.75427e-05 0 -0.0003489 -7.83065e-05 -0.000130745 -0.00043077
          -1.94394e-05 0 -0.000342951 -1.45879e-05 -0.000126658 -0.00042549 5.17438e-06 0 -0.000261438 8.49493e-06 -0.000118488 -0.000340162
          -5.17131e-06 0 -0.000261453 -8.4924e-06 -0.00011849 -0.000340179 1.94511e-05 0 -0.000342979 1.46004e-05 -0.000126663 -0.00042552
          7.75581e-05 0 -0.000348919 7.83237e-05 -0.00013075 -0.000430791 0.000110085 0 -0.000275238 0.000116779 -0.000123292 -0.000348822
          9.89634e-05 0 -0.000168532 0.000107788 -0.000107774 -0.000231351 0 0 -0.000110723 0 -9.89505e-05 -0.000168536
          0 -0.000110056 -0.000275228 -0.000123296 -0.000116748 -0.000348809 -0.000126213 -0.000126197 -0.000487887 -7.1408e-05 -0.000121291 -0.000582032
          6.31207e-06 -9.75812e-05 -0.000567949 2.06894e-05 -7.26607e-05 -0.000465013 -2.06898e-05 -7.26652e-05 -0.000465033 -6.298e-06 -9.75915e-05 -0.000567985
          7.14296e-05 -0.000121301 -0.000582059 0.000126231 -0.000126204 -0.000487907 0.000123305 -0.000116754 -0.000348829 0 -0.00011006 -0.00027525
          0 -7.75183e-05 -0.000348907 -0.000130753 -7.82824e-05 -0.000430777 -0.000121306 -7.13847e-05 -0.000582036 -4.11427e-05 -4.11204e-05 -0.000668222
          5.33663e-05 1.24871e-05 -0.000615601 4.49536e-05 5.88815e-05 -0.000470378 -4.4961e-05 5.88746e-05 -0.000470404 -5.33516e-05 1.24714e-05 -0.000615651
          4.11702e-05 -4.11361e-05 -0.000668261 0.000121329 -7.13961e-05 -0.000582063 0.000130765 -7.82899e-05 -0.000430803 0 -7.75243e-05 -0.000348935
          0 -1.94101e-05 -0.000342963 -0.000126666 -1.45589e-05 -0.000425501 -9.75962e-05 6.34022e-06 -0.000567957 1.24659e-05 5.33934e-05 -0.000615606
          0.000120829 0.000120855 -0.000491604 7.74259e-05 0.000174392 -0.000282101 -7.74427e-05 0.000174385 -0.000282136 -0.000120815 0.000120838 -0.000491674
          -1.24318e-05 5.3377e-05 -0.000615663 9.76257e-05 6.32863e-06 -0.000567998 0.000126681 -1.4566e-05 -0.000425538 0 -1.94154e-05 -0.000343001
          0 5.20624e-06 -0.000261456 -0.000118495 8.52653e-06 -0.00034018 -7.26749e-05 2.07202e-05 -0.000465028 5.88612e-05 4.49833e-05 -0.00047039
          0.000174367 7.74544e-05 -0.000282108 0.000102313 0.000102341 -1.92942e-05 -0.000102336 0.000102338 -1.93361e-05 -0.000174353 7.74488e-05 -0.000282194
          -5.88223e-05 4.49783e-05 -0.000470464 7.27095e-05 2.07179e-05 -0.000465083 0.000118513 8.527e-06 -0.000340228 0 5.2079e-06 -0.000261505
          0 -5.13937e-06 -0.000261478 -0.000118497 -8.46071e-06 -0.000340203 -7.26788e-05 -2.06588e-05 -0.000465055 5.88553e-05 -4.49309e-05 -0.000470423
          0.000174361 -7.74136e-05 -0.000282151 0.000102312 -0.000102308 -1.93437e-05 -0.000102331 -0.000102304 -1.9385e-05 -0.000174344 -7.7403e-05 -0.000282235
          -5.88145e-05 -4.49182e-05 -0.000470497 7.27145e-05 -2.06464e-05 -0.000465111 0.000118515 -8.44871e-06 -0.000340253 0 -5.12732e-06 -0.000261529
          0 1.94807e-05 -0.00034301 -0.00012667 1.46298e-05 -0.00042555 -9.76045e-05 -6.26919e-06 -0.000568013 1.24529e-05 -5.33235e-05 -0.000615676
          0.000120816 -0.000120787 -0.000491695 7.74237e-05 -0.000174326 -0.000282209 -7.74286e-05 -0.000174318 -0.000282243 -0.000120792 -0.000120768 -0.000491763
          -1.24129e-05 -5.33024e-05 -0.000615735 9.76379e-05 -6.25035e-06 -0.000568059 0.000126687 1.46466e-05 -0.000425594 0 1.94969e-05 -0.000343056
          0 7.75831e-05 -0.000348957 -0.000130756 7.83485e-05 -0.000430829 -0.000121313 7.1454e-05 -0.000582094 -4.11539e-05 4.11942e-05 -0.000668292
          5.33553e-05 -1.24084e-05 -0.000615691 4.49543e-05 -5.87996e-05 -0.000470485 -4.49426e-05 -5.87927e-05 -0.000470511 -5.33252e-05 -1.23922e-05 -0.000615742
          4.11925e-05 4.12119e-05 -0.000668337 0.000121344 7.14697e-05 -0.000582133 0.000130772 7.83627e-05 -0.00043087 0 7.75969e-05 -0.000349002
          0 0.000110104 -0.000275282 -0.000123297 0.000116797 -0.000348864 -0.000126216 0.000126249 -0.000487946 -7.14132e-05 0.000121347 -0.000582099
          6.30767e-06 9.76432e-05 -0.00056803 2.06949e-05 7.27265e-05 -0.000465109 -2.06697e-05 7.27308e-05 -0.00046513 -6.272e-06 9.76533e-05 -0.000568071
          7.14513e-05 0.000121358 -0.000582138 0.000126245 0.000126259 -0.000487984 0.000123313 0.000116807 -0.000348907 0 0.000110114 -0.000275329
          0 9.89734e-05 -0.000168577 -0.00010778 0.000107798 -0.000231395 -0.000116765 0.000123315 -0.00034887 -7.83068e-05 0.000130774 -0.00043084
          -1.45866e-05 0.000126691 -0.00042557 8.50436e-06 0.000118522 -0.000340254 -8.47147e-06 0.000118524 -0.000340272 1.46256e-05 0.000126696 -0.000425607
          7.83449e-05 0.00013078 -0.000430876 0.000116794 0.000123321 -0.000348908 0.000107796 0.000107803 -0.00023144 0 9.89789e-05 -0.000168626
          0 0 -0.000110768 -9.89563e-05 0 -0.00016858 -0.000110072 0 -0.00027529 -7.75412e-05 0 -0.000348972
          -1.94361e-05 0 -0.000343033 5.18525e-06 0 -0.000261531 -5.15003e-06 0 -0.000261548 1.9476e-05 0 -0.000343068
          7.75793e-05 0 -0.000349008 0.000110101 0 -0.000275329 9.89718e-05 0 -0.000168626 0 0 -0.000110818
          0 0 -9.57393e-05 -8.88668e-05 0 -0.000147896 0 -8.88576e-05 -0.000147897 -9.77372e-05 -9.77281e-05 -0.000203351
          -0.000101656 0 -0.000249005 -0.00010896 -0.000113904 -0.000312681 -7.63653e-05 0 -0.000323067 -7.79913e-05 -0.000122835 -0.000394105
          -2.31164e-05 0 -0.000318545 -1.84501e-05 -0.000119796 -0.00038984 3.52787e-06 0 -0.000234263 7.05392e-06 -0.000111605 -0.000301018
          -3.52274e-06 0 -0.000234278 -7.04932e-06 -0.000111607 -0.000301035 2.31289e-05 0 -0.000318572 1.84637e-05 -0.000119801 -0.000389869
          7.63804e-05 0 -0.000323086 7.80081e-05 -0.00012284 -0.000394125 0.000101668 0 -0.000249019 0.000108974 -0.000113907 -0.000312697
          8.88735e-05 0 -0.000147911 9.77446e-05 -9.77308e-05 -0.000203368 0 0 -9.57565e-05 0 -8.88599e-05 -0.000147916
          0 -0.000101638 -0.00024901 -0.000113912 -0.000108943 -0.000312684 -0.00012046 -0.000120443 -0.00044053 -7.33446e-05 -0.000118367 -0.000534146
          2.65141e-06 -9.56602e-05 -0.000520735 2.02534e-05 -6.95533e-05 -0.000412124 -2.02517e-05 -6.9558e-05 -0.000412144 -2.63582e-06 -9.56703e-05 -0.000520772
          7.33661e-05 -0.000118376 -0.000534172 0.000120477 -0.00012045 -0.000440549 0.000113922 -0.000108948 -0.000312704 0 -0.000101642 -0.000249031
          0 -7.63404e-05 -0.000323074 -0.000122844 -7.79666e-05 -0.000394111 -0.000118383 -7.33208e-05 -0.000534149 -4.45351e-05 -4.45123e-05 -0.000621375
          5.29534e-05 1.189e-05 -0.000567203 4.74617e-05 6.32899e-05 -0.000410704 -4.74675e-05 6.32826e-05 -0.000410731 -5.29365e-05 1.18737e-05 -0.000567254
          4.45635e-05 -4.45278e-05 -0.000621413 0.000118405 -7.33312e-05 -0.000534176 0.000122855 -7.79731e-05 -0.000394136 0 -7.63454e-05 -0.000323101
          0 -2.30864e-05 -0.000318557 -0.000119804 -1.84204e-05 -0.000389851 -9.56756e-05 2.68023e-06 -0.000520743 1.18682e-05 5.29812e-05 -0.000567208
          0.000128931 0.000128957 -0.000432563 8.5331e-05 0.000191401 -0.000200343 -8.53477e-05 0.000191393 -0.00020038 -0.000128914 0.00012894 -0.000432636
          -1.18321e-05 5.29639e-05 -0.000567266 9.57052e-05 2.66888e-06 -0.000520783 0.000119819 -1.84268e-05 -0.000389886 0 -2.30909e-05 -0.000318593
          0 3.56049e-06 -0.000234281 -0.000111612 7.08628e-06 -0.000301035 -6.95679e-05 2.02849e-05 -0.000412139 6.32692e-05 4.74922e-05 -0.000410715
          0.000191376 8.53604e-05 -0.00020035 0.000115188 0.000115217 9.67408e-05 -0.000115212 0.000115214 9.66953e-05 -0.000191358 8.53539e-05 -0.000200441
          -6.32271e-05 4.74866e-05 -0.000410792 6.96033e-05 2.02827e-05 -0.000412193 0.000111631 7.08705e-06 -0.000301082 0 3.5625e-06 -0.000234329
          0 -3.49002e-06 -0.000234303 -0.000111614 -7.01685e-06 -0.000301058 -6.95719e-05 -2.02199e-05 -0.000412165 6.32627e-05 -4.74366e-05 -0.00041075
          0.000191369 -8.53178e-05 -0.000200394 0.000115187 -0.000115184 9.66878e-05 -0.000115206 -0.000115179 9.6643e-05 -0.000191348 -8.53058e-05 -0.000200484
          -6.32189e-05 -4.74228e-05 -0.000410825 6.96083e-05 -2.02069e-05 -0.000412221 0.000111633 -7.0045e-06 -0.000301107 0 -3.47773e-06 -0.000234352
          0 2.31593e-05 -0.000318603 -0.000119807 1.84938e-05 -0.000389899 -9.56837e-05 -2.60625e-06 -0.000520799 1.18546e-05 -5.29076e-05 -0.000567279
          0.000128916 -0.000128886 -0.000432657 8.53279e-05 -0.000191331 -0.000200455 -8.53323e-05 -0.000191322 -0.000200491 -0.00012889 -0.000128865 -0.000432727
          -1.18126e-05 -5.28853e-05 -0.000567338 9.57172e-05 -2.58717e-06 -0.000520844 0.000119825 1.85105e-05 -0.000389942 0 2.31753e-05 -0.000318647
          0 7.6406e-05 -0.000323123 -0.000122846 7.80335e-05 -0.000394162 -0.000118389 7.33912e-05 -0.000534206 -4.4546e-05 4.45881e-05 -0.000621444
          5.29415e-05 -1.18081e-05 -0.000567293 4.74618e-05 -6.32038e-05 -0.000410813 -4.7448e-05 -6.31964e-05 -0.000410839 -5.29089e-05 -1.17912e-05 -0.000567345
          4.45856e-05 4.46058e-05 -0.000621488 0.000118419 7.34064e-05 -0.000534244 0.000122862 7.80474e-05 -0.000394202 0 7.64195e-05 -0.000323167
          0 0.000101686 -0.000249062 -0.000113913 0.000108992 -0.000312738 -0.000120462 0.000120495 -0.000440587 -7.33488e-05 0.000118423 -0.000534211
          2.64725e-06 9.57229e-05 -0.000520815 2.02588e-05 6.96206e-05 -0.000412219 -2.02311e-05 6.96249e-05 -0.00041224 -2.60964e-06 9.5733e-05 -0.000520856
          7.33874e-05 0.000118434 -0.000534249 0.000120491 0.000120505 -0.000440624 0.000113929 0.000109002 -0.00031278 0 0.000101696 -0.000249108
          0 8.88836e-05 -0.000147955 -9.77368e-05 9.77546e-05 -0.000203411 -0.00010896 0.000113931 -0.000312743 -7.79905e-05 0.000122865 -0.000394172
          -1.84481e-05 0.000119829 -0.000389918 7.06362e-06 0.00011164 -0.000301108 -7.02808e-06 0.000111642 -0.000301126 1.84886e-05 0.000119833 -0.000389954
          7.80289e-05 0.00012287 -0.000394208 0.000108989 0.000113937 -0.000312781 9.7753e-05 9.77602e-05 -0.000203454 0 8.88893e-05 -0.000148003
          0 0 -9.58006e-05 -8.8866e-05 0 -0.000147958 -0.000101654 0 -0.00024907 -7.63629e-05 0 -0.000323137
          -2.31123e-05 0 -0.000318624 3.53909e-06 0 -0.000234354 -3.50123e-06 0 -0.000234371 2.31536e-05 0 -0.000318659
          7.64013e-05 0 -0.000323172 0.000101683 0 -0.000249108 8.88822e-05 0 -0.000148003 0 0 -9.58487e-05
          0 0 -8.53948e-05 -7.98702e-05 0 -0.000132865 0 -7.98608e-05 -0.000132866 -8.85709e-05 -8.85616e-05 -0.000182264
          -9.41129e-05 0 -0.000228136 -0.000102043 -0.000105193 -0.000283465 -7.56424e-05 0 -0.000301322 -7.83011e-05 -0.000115783 -0.000363052
          -2.64146e-05 0 -0.000299248 -2.18809e-05 -0.000113909 -0.000360869 2.54012e-06 0 -0.000212383 6.42037e-06 -0.000105497 -0.000268578
          -2.53308e-06 0 -0.000212399 -6.41387e-06 -0.000105499 -0.000268595 2.64281e-05 0 -0.000299275 2.18956e-05 -0.000113914 -0.000360898
          7.56572e-05 0 -0.00030134 7.83177e-05 -0.000115787 -0.000363072 9.41246e-05 0 -0.000228149 0.000102056 -0.000105196 -0.000283481
          7.98771e-05 0 -0.00013288 8.85785e-05 -8.85641e-05 -0.00018228 0 0 -8.54113e-05 0 -7.9863e-05 -0.000132884
          0 -9.40947e-05 -0.00022814 -0.000105202 -0.000102025 -0.000283468 -0.00011596 -0.000115942 -0.000400132 -7.64715e-05 -0.000117441 -0.000492118
          -2.21615e-07 -9.58284e-05 -0.000480898 2.1207e-05 -6.77983e-05 -0.000366192 -2.12036e-05 -6.78031e-05 -0.000366213 2.38972e-07 -9.58386e-05 -0.000480934
          7.64932e-05 -0.00011745 -0.000492143 0.000115976 -0.000115948 -0.000400151 0.000105211 -0.00010203 -0.000283488 0 -9.40984e-05 -0.000228161
          0 -7.56169e-05 -0.00030133 -0.000115792 -7.82759e-05 -0.000363058 -0.000117458 -7.64471e-05 -0.000492121 -4.94391e-05 -4.94157e-05 -0.000580466
          5.50337e-05 1.12568e-05 -0.000526819 5.28822e-05 7.01535e-05 -0.000357142 -5.28872e-05 7.01453e-05 -0.000357171 -5.50141e-05 1.12393e-05 -0.000526871
          4.94686e-05 -4.94311e-05 -0.000580502 0.000117479 -7.64565e-05 -0.000492146 0.000115803 -7.82814e-05 -0.000363083 0 -7.5621e-05 -0.000301356
          0 -2.63839e-05 -0.000299259 -0.000113917 -2.18505e-05 -0.000360879 -9.58442e-05 -1.92138e-07 -0.000480906 1.12345e-05 5.50621e-05 -0.000526824
          0.000143792 0.000143819 -0.000381527 9.89549e-05 0.00021975 -0.000120352 -9.89731e-05 0.000219741 -0.000120392 -0.000143772 0.000143799 -0.000381603
          -1.11954e-05 5.50433e-05 -0.000526882 9.5874e-05 -2.03533e-07 -0.000480944 0.000113933 -2.18563e-05 -0.000360914 0 -2.63877e-05 -0.000299295
          0 2.57348e-06 -0.000212401 -0.000105504 6.45346e-06 -0.000268595 -6.78132e-05 2.12393e-05 -0.000366206 7.01322e-05 5.29135e-05 -0.000357153
          0.000219724 9.89851e-05 -0.000120358 0.000136437 0.000136466 0.000222541 -0.000136464 0.000136462 0.00022249 -0.000219703 9.89771e-05 -0.000120457
          -7.00857e-05 5.29069e-05 -0.000357232 6.78496e-05 2.12368e-05 -0.000366261 0.000105523 6.45439e-06 -0.000268642 0 2.57574e-06 -0.000212447
          0 -2.49959e-06 -0.000212422 -0.000105506 -6.38064e-06 -0.000268618 -6.78174e-05 -2.11711e-05 -0.000366233 7.01249e-05 -5.28555e-05 -0.000357188
          0.000219716 -9.89423e-05 -0.000120406 0.000136434 -0.000136435 0.000222483 -0.000136457 -0.000136428 0.000222433 -0.000219692 -9.8928e-05 -0.000120502
          -7.00768e-05 -5.28399e-05 -0.000357266 6.78548e-05 -2.11571e-05 -0.000366288 0.000105525 -6.36781e-06 -0.000268666 0 -2.48696e-06 -0.000212471