<?xml version="1.0"?>
<VTKFile type="UnstructuredGrid" version="0.1" byte_order="LittleEndian">
  <UnstructuredGrid>
    <Piece NumberOfCells="3025" NumberOfPoints="3744">
      <PointData Vectors="disp">
        <DataArray type="Float32" Name="disp" NumberOfComponents="3" format="ascii">
          0 0 -0.00025896 -0.000147633 0 -0.000329843 0 -0.000147622 -0.000329843 -0.000158309 -0.000158297 -0.000410156
          0 0 -0.000183868 -0.000135118 0 -0.000252865 0 -0.000135106 -0.000252865 -0.000145062 -0.00014505 -0.000330781
          -0.000168299 0 -0.000442575 -0.000178945 -0.000179619 -0.000538981 -0.000157212 0 -0.000365455 -0.000166898 -0.000164681 -0.000459355
          -0.000128546 0 -0.000513894 -0.000134057 -0.000195776 -0.0006207 -0.000123436 0 -0.000438942 -0.00012852 -0.000179452 -0.000543908
          -5.64498e-05 0 -0.000534762 -5.67527e-05 -0.000201591 -0.000645978 -5.77112e-05 0 -0.000459422 -5.79478e-05 -0.000184774 -0.000569091
          -8.6127e-06 0 -0.000502874 -7.79276e-06 -0.000201075 -0.000614478 -1.12222e-05 0 -0.000424764 -1.04348e-05 -0.000184223 -0.000534785
          8.66847e-06 0 -0.000502878 7.84804e-06 -0.000201075 -0.000614483 1.12789e-05 0 -0.000424769 1.04911e-05 -0.000184224 -0.00053479
          5.65049e-05 0 -0.000534773 5.68078e-05 -0.000201592 -0.000645989 5.77667e-05 0 -0.000459432 5.80032e-05 -0.000184774 -0.000569102
          0.000128594 0 -0.000513907 0.000134106 -0.000195777 -0.000620713 0.000123484 0 -0.000438955 0.000128569 -0.000179452 -0.00054392
          0.000168334 0 -0.00044259 0.00017898 -0.000179618 -0.000538997 0.000157247 0 -0.000365469 0.000166933 -0.000164681 -0.00045937
          0.000147651 0 -0.000329861 0.000158326 -0.000158296 -0.000410175 0.000135136 0 -0.000252882 0.00014508 -0.00014505 -0.000330799
          0 0 -0.000258981 0 -0.00014762 -0.000329864 0 0 -0.000183888 0 -0.000135105 -0.000252885
          0 -0.000168277 -0.000442577 -0.00017963 -0.000178923 -0.000538983 0 -0.00015719 -0.000365457 -0.000164692 -0.000166876 -0.000459356
          -0.00019933 -0.000199308 -0.000695852 -0.000185435 -0.000185413 -0.000616682 -0.000141295 -0.000210775 -0.000794932 -0.000135198 -0.000195859 -0.000719845
          -5.1832e-05 -0.000207278 -0.000824131 -5.32477e-05 -0.000192517 -0.000749167 -3.39539e-06 -0.000198476 -0.000789126 -6.26315e-06 -0.000184195 -0.000710842
          3.44723e-06 -0.000198477 -0.000789132 6.31614e-06 -0.000184196 -0.000710848 5.18851e-05 -0.00020728 -0.000824145 5.33013e-05 -0.000192519 -0.00074918
          0.000141343 -0.000210777 -0.000794947 0.000135247 -0.000195861 -0.000719861 0.000199365 -0.000199309 -0.000695869 0.00018547 -0.000185414 -0.000616699
          0.000179648 -0.000178923 -0.000539004 0.00016471 -0.000166875 -0.000459376 0 -0.000168276 -0.0004426 0 -0.000157189 -0.000365479
          0 -0.000128516 -0.000513899 -0.000195787 -0.000134027 -0.000620705 0 -0.000123405 -0.000438948 -0.000179463 -0.00012849 -0.000543912
          -0.000210796 -0.000141266 -0.000794935 -0.00019588 -0.000135169 -0.000719848 -0.000135028 -0.000134999 -0.000899613 -0.000129345 -0.000129317 -0.00082917
          -3.27087e-05 -0.000113107 -0.000918707 -3.52038e-05 -0.000108764 -0.00084741 7.33011e-06 -9.20605e-05 -0.000869613 3.89179e-06 -8.88867e-05 -0.000793364
          -7.28381e-06 -9.20623e-05 -0.000869621 -3.84401e-06 -8.88883e-05 -0.000793372 3.27585e-05 -0.000113111 -0.000918725 3.52543e-05 -0.000108768 -0.000847429
          0.000135075 -0.000135003 -0.000899634 0.000129393 -0.00012932 -0.000829191 0.00021083 -0.000141268 -0.000794958 0.000195915 -0.000135171 -0.00071987
          0.000195805 -0.000134029 -0.00062073 0.00017948 -0.000128491 -0.000543936 0 -0.000128516 -0.000513927 0 -0.000123405 -0.000438974
          0 -5.64141e-05 -0.000534773 -0.000201602 -5.67171e-05 -0.000645988 0 -5.76748e-05 -0.000459432 -0.000184784 -5.79115e-05 -0.0005691
          -0.000207297 -5.17971e-05 -0.000824139 -0.000192536 -5.32122e-05 -0.000749175 -0.000113134 -3.2675e-05 -0.000918712 -0.000108791 -3.51695e-05 -0.000847415
          -1.5695e-06 -1.53745e-06 -0.000912841 -5.73052e-06 -5.6978e-06 -0.000837998 2.25731e-05 2.37968e-05 -0.000840515 1.83747e-05 1.83801e-05 -0.000757908
          -2.25328e-05 2.3795e-05 -0.000840526 -1.83324e-05 1.83784e-05 -0.000757919 1.61592e-06 -1.54199e-06 -0.000912867 5.77797e-06 -5.70174e-06 -0.000838024
          0.00011318 -3.26801e-05 -0.000918741 0.000108838 -3.51737e-05 -0.000847444 0.000207332 -5.18012e-05 -0.00082417 0.000192572 -5.32154e-05 -0.000749205
          0.000201619 -5.672e-05 -0.000646021 0.000184802 -5.79135e-05 -0.000569132 0 -5.64157e-05 -0.000534807 0 -5.76756e-05 -0.000459466
          0 -8.5745e-06 -0.000502891 -0.000201085 -7.75461e-06 -0.000614495 0 -1.1183e-05 -0.000424782 -0.000184233 -1.03958e-05 -0.000534802
          -0.000198494 -3.35802e-06 -0.000789141 -0.000184214 -6.22488e-06 -0.000710857 -9.20859e-05 7.36619e-06 -0.000869626 -8.89126e-05 3.92879e-06 -0.000793376
          2.37665e-05 2.26076e-05 -0.000840522 1.8349e-05 1.84101e-05 -0.000757915 3.43487e-05 3.43815e-05 -0.00074889 2.96053e-05 2.96389e-05 -0.00065601
          -3.43113e-05 3.43807e-05 -0.000748903 -2.95655e-05 2.96383e-05 -0.000656024 -2.37214e-05 2.26055e-05 -0.000840554 -1.83026e-05 1.84085e-05 -0.000757948
          9.21325e-05 7.36361e-06 -0.000869663 8.89596e-05 3.92689e-06 -0.000793414 0.00019853 -3.36045e-06 -0.00078918 0.00018425 -6.22652e-06 -0.000710896
          0.000201103 -7.75664e-06 -0.000614536 0.000184252 -1.03969e-05 -0.000534842 0 -8.57549e-06 -0.000502934 0 -1.11832e-05 -0.000424824
          0 8.70655e-06 -0.000502905 -0.000201085 7.88604e-06 -0.000614509 0 1.1318e-05 -0.000424795 -0.000184233 1.05301e-05 -0.000534816
          -0.000198494 3.48442e-06 -0.000789157 -0.000184214 6.35442e-06 -0.000710872 -9.20864e-05 -7.24788e-06 -0.000869643 -8.89129e-05 -3.80699e-06 -0.000793393
          2.3766e-05 -2.24984e-05 -0.000840542 1.83488e-05 -1.8297e-05 -0.000757935 3.43494e-05 -3.42785e-05 -0.000748912 2.96061e-05 -2.95317e-05 -0.000656033
          -3.43091e-05 -3.42777e-05 -0.000748927 -2.95633e-05 -2.95308e-05 -0.000656048 -2.37183e-05 -2.24965e-05 -0.000840577 -1.82996e-05 -1.82949e-05 -0.000757971
          9.21352e-05 -7.2461e-06 -0.000869685 8.89623e-05 -3.80488e-06 -0.000793436 0.000198532 3.48542e-06 -0.000789202 0.000184252 6.35588e-06 -0.000710917
          0.000201104 7.88642e-06 -0.000614557 0.000184253 1.05311e-05 -0.000534862 0 8.70744e-06 -0.000502955 0 1.13195e-05 -0.000424844
          0 5.65406e-05 -0.000534809 -0.000201601 5.68434e-05 -0.000646025 0 5.78034e-05 -0.000459468 -0.000184783 5.80397e-05 -0.000569137
          -0.000207297 5.19199e-05 -0.000824179 -0.000192536 5.33371e-05 -0.000749214 -0.000113135 3.27923e-05 -0.000918756 -0.000108791 3.5289e-05 -0.000847459
          -1.56995e-06 1.64827e-06 -0.000912893 -5.73036e-06 5.81128e-06 -0.00083805 2.25752e-05 -2.36905e-05 -0.000840573 1.83772e-05 -1.82707e-05 -0.000757966
          -2.2527e-05 -2.36887e-05 -0.000840587 -1.83265e-05 -1.8269e-05 -0.000757981 1.62361e-06 1.65246e-06 -0.000912927 5.78561e-06 5.81547e-06 -0.000838084
          0.000113187 3.27964e-05 -0.000918799 0.000108845 3.52933e-05 -0.000847502 0.000207337 5.19227e-05 -0.000824227 0.000192576 5.33402e-05 -0.000749261
          0.000201622 5.68449e-05 -0.000646077 0.000184804 5.80416e-05 -0.000569187 0 5.65422e-05 -0.000534864 0 5.78053e-05 -0.000459521
          0 0.000128625 -0.00051395 -0.000195785 0.000134137 -0.000620757 0 0.000123516 -0.000438997 -0.000179461 0.0001286 -0.000543962
          -0.000210793 0.000141373 -0.000794989 -0.000195877 0.000135277 -0.000719901 -0.000135026 0.000135104 -0.000899673 -0.000129343 0.000129423 -0.000829229
          -3.27076e-05 0.000113209 -0.000918775 -3.52018e-05 0.000108867 -0.000847477 7.33375e-06 9.21593e-05 -0.00086969 3.89614e-06 8.89871e-05 -0.00079344
          -7.2762e-06 9.2161e-05 -0.000869703 -3.83604e-06 8.89888e-05 -0.000793453 3.27679e-05 0.000113212 -0.000918808 3.52638e-05 0.00010887 -0.00084751
          0.000135083 0.000135108 -0.000899716 0.000129401 0.000129426 -0.000829271 0.000210836 0.000141375 -0.000795039 0.00019592 0.00013528 -0.00071995
          0.000195807 0.000134138 -0.000620811 0.000179483 0.000128602 -0.000544016 0 0.000128626 -0.000514009 0 0.000123517 -0.000439054
          0 0.000168357 -0.000442638 -0.000179627 0.000179002 -0.000539044 0 0.000157271 -0.000365515 -0.000164689 0.000166957 -0.000459416
          -0.000199326 0.000199387 -0.000695915 -0.000185431 0.000185493 -0.000616744 -0.000141291 0.000210852 -0.000795 -0.000135194 0.000195937 -0.000719912
          -5.18286e-05 0.000207353 -0.000824208 -5.32434e-05 0.000192593 -0.000749242 -3.39023e-06 0.00019855 -0.000789212 -6.25716e-06 0.00018427 -0.000710927
          3.45534e-06 0.000198552 -0.000789224 6.32478e-06 0.000184271 -0.000710939 5.18942e-05 0.000207356 -0.00082424 5.33107e-05 0.000192596 -0.000749274
          0.00014135 0.000210855 -0.000795044 0.000135254 0.00019594 -0.000719955 0.00019937 0.000199389 -0.000695967 0.000185475 0.000185495 -0.000616795
          0.00017965 0.000179003 -0.000539102 0.000164713 0.000166957 -0.000459472 0 0.000168357 -0.0004427 0 0.000157272 -0.000365576
          0 0.000147663 -0.00032991 -0.000158305 0.000158339 -0.000410224 0 0.000135148 -0.00025293 -0.000145058 0.000145093 -0.000330847
          -0.000178939 0.00017966 -0.000539051 -0.000166892 0.000164722 -0.000459423 -0.000134052 0.000195816 -0.000620775 -0.000128514 0.000179492 -0.000543981
          -5.67475e-05 0.000201631 -0.000646062 -5.79415e-05 0.000184813 -0.000569172 -7.78657e-06 0.000201114 -0.000614571 -1.04277e-05 0.000184263 -0.000534876
          7.85618e-06 0.000201114 -0.000614583 1.04998e-05 0.000184263 -0.000534888 5.68162e-05 0.000201632 -0.000646093 5.8012e-05 0.000184815 -0.000569203
          0.000134113 0.000195818 -0.00062082 0.000128576 0.000179494 -0.000544024 0.000178984 0.00017966 -0.000539105 0.000166938 0.000164723 -0.000459475
          0.000158329 0.000158339 -0.000410284 0.000145083 0.000145093 -0.000330906 0 0.000147663 -0.000329975 0 0.000135149 -0.000252993
          0 0 -0.000259031 -0.000147629 0 -0.000329914 0 0 -0.000183937 -0.000135114 0 -0.000252934
          -0.000168293 0 -0.00044265 -0.000157206 0 -0.000365527 -0.000128539 0 -0.000513974 -0.000123428 0 -0.00043902
          -5.64435e-05 0 -0.00053485 -5.77039e-05 0 -0.000459507 -8.60572e-06 0 -0.00050297 -1.12142e-05 0 -0.000424859
          8.67699e-06 0 -0.000502983 1.1288e-05 0 -0.000424871 5.65134e-05 0 -0.000534882 5.77755e-05 0 -0.000459539
          0.000128601 0 -0.000514018 0.000123491 0 -0.000439064 0.000168338 0 -0.000442704 0.000157252 0 -0.00036558
          0.000147653 0 -0.000329976 0.000135138 0 -0.000252994 0 0 -0.000259097 0 0 -0.000184001
          0 0 -0.000142428 -0.000123578 0 -0.000205311 0 -0.000123566 -0.000205311 -0.000133607 -0.000133596 -0.000275284
          -0.000146533 0 -0.000314237 -0.000155927 -0.000153019 -0.000398151 -0.00011892 0 -0.000390033 -0.000123976 -0.00016747 -0.000484809
          -5.86101e-05 0 -0.000410231 -5.88656e-05 -0.000172783 -0.00050963 -1.28279e-05 0 -0.000373445 -1.2023e-05 -0.000172234 -0.000472984
          1.28855e-05 0 -0.000373449 1.20802e-05 -0.000172235 -0.000472989 5.8666e-05 0 -0.000410241 5.89215e-05 -0.000172784 -0.00050964
          0.000118968 0 -0.000390045 0.000124025 -0.00016747 -0.000484821 0.000146569 0 -0.00031425 0.000155962 -0.000153019 -0.000398165
          0.000123596 0 -0.000205327 0.000133626 -0.000133595 -0.0002753 0 0 -0.000142447 0 -0.000123565 -0.000205331
          0 -0.000146511 -0.000314239 -0.000153031 -0.000155904 -0.000398152 -0.000173909 -0.000173887 -0.000547985 -0.000130807 -0.000184251 -0.000653713
          -5.42498e-05 -0.000181154 -0.000682524 -7.77803e-06 -0.000172842 -0.000641087 7.8321e-06 -0.000172843 -0.000641094 5.43041e-05 -0.000181156 -0.000682537
          0.000130855 -0.000184252 -0.000653728 0.000173944 -0.000173887 -0.000548001 0.000153049 -0.000155904 -0.000398171 0 -0.000146509 -0.00031426
          0 -0.000118889 -0.000390038 -0.000167481 -0.000123945 -0.000484813 -0.000184272 -0.000130777 -0.000653716 -0.000125432 -0.000125403 -0.000766219
          -3.61227e-05 -0.000104999 -0.000782751 2.64614e-06 -8.476e-05 -0.000723549 -2.59709e-06 -8.47615e-05 -0.000723557 3.61742e-05 -0.000105003 -0.00078277
          0.00012548 -0.000125406 -0.00076624 0.000184307 -0.000130778 -0.000653737 0.000167499 -0.000123945 -0.000484837 0 -0.000118888 -0.000390064
          0 -5.85729e-05 -0.000410241 -0.000172794 -5.88285e-05 -0.000509639 -0.000181174 -5.42136e-05 -0.000682531 -0.000105027 -3.60877e-05 -0.000782756
          -5.8729e-06 -5.83949e-06 -0.00076818 1.77528e-05 1.92766e-05 -0.000679209 -1.77091e-05 1.9275e-05 -0.000679221 5.92152e-06 -5.84311e-06 -0.000768207
          0.000105074 -3.60913e-05 -0.000782786 0.000181209 -5.4216e-05 -0.000682561 0.000172812 -5.88297e-05 -0.00050967 0 -5.85729e-05 -0.000410274
          0 -1.27877e-05 -0.000373461 -0.000172244 -1.1983e-05 -0.000473 -0.000172861 -7.73883e-06 -0.000641102 -8.47864e-05 2.68407e-06 -0.000723561
          1.92449e-05 1.77891e-05 -0.000679216 2.9625e-05 2.96596e-05 -0.000564988 -2.95836e-05 2.96591e-05 -0.000565002 -1.9197e-05 1.77878e-05 -0.000679249
          8.48343e-05 2.68273e-06 -0.000723599 0.000172898 -7.73976e-06 -0.000641141 0.000172263 -1.19834e-05 -0.000473039 0 -1.27873e-05 -0.000373502
          0 1.29258e-05 -0.000373475 -0.000172244 1.21203e-05 -0.000473014 -0.000172861 7.87147e-06 -0.000641117 -8.47866e-05 -2.55898e-06 -0.000723578
          1.92447e-05 -1.76725e-05 -0.000679236 2.96259e-05 -2.95487e-05 -0.000565011 -2.95812e-05 -2.95477e-05 -0.000565026 -1.91939e-05 -1.76701e-05 -0.000679273
          8.4837e-05 -2.55637e-06 -0.000723621 0.000172899 7.87349e-06 -0.000641161 0.000172264 1.21219e-05 -0.00047306 0 1.29278e-05 -0.000373523
          0 5.87037e-05 -0.000410276 -0.000172792 5.8959e-05 -0.000509675 -0.000181173 5.43409e-05 -0.00068257 -0.000105027 3.62098e-05 -0.0007828
          -5.8724e-06 5.95581e-06 -0.000768232 1.77557e-05 -1.91642e-05 -0.000679268 -1.77027e-05 -1.91623e-05 -0.000679282 5.92942e-06 5.96029e-06 -0.000768267
          0.000105081 3.62145e-05 -0.000782843 0.000181214 5.43443e-05 -0.000682616 0.000172814 5.89613e-05 -0.000509724 0 5.87061e-05 -0.000410328
          0 0.000119001 -0.000390086 -0.000167479 0.000124057 -0.000484862 -0.000184269 0.000130887 -0.000653768 -0.000125429 0.00012551 -0.000766277
          -3.61201e-05 0.000105104 -0.000782818 2.65107e-06 8.48625e-05 -0.000723624 -2.5886e-06 8.48643e-05 -0.000723638 3.61839e-05 0.000105108 -0.000782851
          0.000125488 0.000125514 -0.000766318 0.000184312 0.00013089 -0.000653815 0.000167502 0.000124059 -0.000484914 0 0.000119002 -0.000390142
          0 0.000146593 -0.000314295 -0.000153028 0.000155986 -0.00039821 -0.000173904 0.000173968 -0.000548045 -0.000130802 0.00018433 -0.000653778
          -5.42446e-05 0.000181231 -0.000682597 -7.77128e-06 0.000172918 -0.000641171 7.84134e-06 0.00017292 -0.000641183 5.43137e-05 0.000181234 -0.000682629
          0.000130863 0.000184332 -0.000653821 0.00017395 0.000173969 -0.000548095 0.000153052 0.000155987 -0.000398265 0 0.000146594 -0.000314354
          0 0.000123609 -0.000205374 -0.000133604 0.000133639 -0.000275347 -0.00015592 0.000153062 -0.000398217 -0.000123969 0.000167511 -0.00048488
          -5.88584e-05 0.000172823 -0.000509709 -1.2015e-05 0.000172274 -0.000473073 1.20896e-05 0.000172275 -0.000473084 5.89307e-05 0.000172825 -0.00050974
          0.000124032 0.000167513 -0.000484922 0.000155967 0.000153063 -0.000398268 0.000133629 0.000133639 -0.000275404 0 0.00012361 -0.000205435
          0 0 -0.000142495 -0.000123574 0 -0.000205378 -0.000146526 0 -0.000314306 -0.000118912 0 -0.000390108
          -5.86018e-05 0 -0.000410314 -1.28191e-05 0 -0.000373537 1.28953e-05 0 -0.000373549 5.86753e-05 0 -0.000410345
          0.000118976 0 -0.000390151 0.000146574 0 -0.000314358 0.000123599 0 -0.000205436 0 0 -0.000142557
          0 0 -0.000117365 -0.000112719 0 -0.000173811 0 -0.000112707 -0.000173811 -0.000122891 -0.000122879 -0.000235393
          -0.000136682 0 -0.000277748 -0.000146221 -0.000142591 -0.00035067 -0.000114797 0 -0.000355015 -0.00012013 -0.000157465 -0.000438029
          -5.92422e-05 0 -0.000375494 -5.95679e-05 -0.000163124 -0.000462822 -1.36827e-05 0 -0.000336822 -1.28041e-05 -0.000162572 -0.000423917
          1.37412e-05 0 -0.000336826 1.28621e-05 -0.000162572 -0.000423922 5.92987e-05 0 -0.000375504 5.96243e-05 -0.000163124 -0.000462832
          0.000114846 0 -0.000355026 0.000120179 -0.000157465 -0.000438041 0.000136717 0 -0.00027776 0.000146257 -0.000142591 -0.000350683
          0.000112738 0 -0.000173826 0.00012291 -0.000122878 -0.000235409 0 0 -0.000117383 0 -0.000112706 -0.00017383
          0 -0.000136659 -0.000277749 -0.000142603 -0.000146199 -0.000350671 -0.000164681 -0.000164658 -0.000489971 -0.000127711 -0.000175827 -0.000596233
          -5.48908e-05 -0.000173072 -0.000624689 -8.19423e-06 -0.000164338 -0.000579914 8.24923e-06 -0.000164339 -0.00057992 5.49457e-05 -0.000173074 -0.000624702
          0.000127759 -0.000175827 -0.000596247 0.000164716 -0.000164658 -0.000489987 0.000142621 -0.000146197 -0.000350689 0 -0.000136657 -0.000277769
          0 -0.000114765 -0.00035502 -0.000157476 -0.000120098 -0.000438034 -0.000175848 -0.00012768 -0.000596236 -0.000122898 -0.000122869 -0.00071
          -3.56156e-05 -0.000101537 -0.000724865 3.30176e-06 -7.95005e-05 -0.000659654 -3.25172e-06 -7.9502e-05 -0.000659663 3.5668e-05 -0.00010154 -0.000724884
          0.000122947 -0.000122871 -0.00071002 0.000175883 -0.000127681 -0.000596257 0.000157494 -0.000120098 -0.000438056 0 -0.000114764 -0.000355044
          0 -5.92042e-05 -0.000375504 -0.000163135 -5.95301e-05 -0.000462831 -0.000173093 -5.48539e-05 -0.000624696 -0.000101566 -3.55799e-05 -0.000724869
          -2.27609e-06 -2.24198e-06 -0.000704183 2.03828e-05 2.61409e-05 -0.000604052 -2.03381e-05 2.61392e-05 -0.000604064 2.32594e-06 -2.24556e-06 -0.00070421
          0.000101614 -3.55831e-05 -0.000724899 0.000173129 -5.48556e-05 -0.000624725 0.000163153 -5.95304e-05 -0.000462861 0 -5.92035e-05 -0.000375535
          0 -1.36416e-05 -0.000336838 -0.000162582 -1.27632e-05 -0.000423932 -0.000164357 -8.15412e-06 -0.000579928 -7.95274e-05 3.34059e-06 -0.000659666
          2.61084e-05 2.042e-05 -0.000604059 3.40769e-05 3.41124e-05 -0.000473704 -3.40346e-05 3.41119e-05 -0.000473719 -2.60591e-05 2.04189e-05 -0.000604094
          7.95765e-05 3.33968e-06 -0.000659704 0.000164394 -8.15444e-06 -0.000579966 0.000162601 -1.27628e-05 -0.000423971 0 -1.36405e-05 -0.000336878
          0 1.37825e-05 -0.000336851 -0.000162581 1.29032e-05 -0.000423946 -0.000164357 8.28963e-06 -0.000579943 -7.95276e-05 -3.21257e-06 -0.000659683
          2.61082e-05 -2.03005e-05 -0.00060408 3.40779e-05 -3.39986e-05 -0.000473728 -3.4032e-05 -3.39974e-05 -0.000473744 -2.60557e-05 -2.02975e-05 -0.000604117
          7.95793e-05 -3.20933e-06 -0.000659726 0.000164396 8.29227e-06 -0.000579987 0.000162602 1.29055e-05 -0.000423991 0 1.3785e-05 -0.000336898
          0 5.93373e-05 -0.000375538 -0.000163133 5.96627e-05 -0.000462866 -0.000173091 5.49835e-05 -0.000624734 -0.000101565 3.57046e-05 -0.000724913
          -2.27555e-06 2.36115e-06 -0.000704234 2.03858e-05 -2.60253e-05 -0.000604112 -2.03312e-05 -2.60231e-05 -0.000604127 2.33434e-06 2.36618e-06 -0.00070427
          0.000101621 3.57097e-05 -0.000724955 0.000173133 5.49873e-05 -0.000624779 0.000163156 5.96655e-05 -0.000462914 0 5.934e-05 -0.000375589
          0 0.000114879 -0.000355067 -0.000157473 0.000120211 -0.000438081 -0.000175845 0.000127792 -0.000596286 -0.000122895 0.000122978 -0.000710056
          -3.56126e-05 0.000101644 -0.00072493 3.30712e-06 7.96054e-05 -0.000659729 -3.24259e-06 7.96073e-05 -0.000659743 3.56782e-05 0.000101648 -0.000724963
          0.000122955 0.000122982 -0.000710097 0.000175889 0.000127794 -0.000596333 0.000157497 0.000120213 -0.000438132 0 0.000114881 -0.000355121
          0 0.000136741 -0.000277804 -0.000142599 0.000146281 -0.000350727 -0.000164675 0.00016474 -0.000490029 -0.000127705 0.000175906 -0.000596297
          -5.48849e-05 0.000173151 -0.000624761 -8.18682e-06 0.000164416 -0.000579996 8.25911e-06 0.000164417 -0.000580009 5.49558e-05 0.000173154 -0.000624792
          0.000127767 0.000175909 -0.000596338 0.000164721 0.000164742 -0.000490078 0.000142624 0.000146283 -0.000350781 0 0.000136743 -0.000277861
          0 0.000112751 -0.000173872 -0.000122887 0.000122923 -0.000235454 -0.000146215 0.000142634 -0.000350734 -0.000120122 0.000157506 -0.000438098
          -5.95598e-05 0.000163165 -0.000462899 -1.27953e-05 0.000162612 -0.000424004 1.28722e-05 0.000162613 -0.000424015 5.96339e-05 0.000163166 -0.000462929
          0.000120186 0.000157508 -0.00043814 0.000146262 0.000142635 -0.000350783 0.000122913 0.000122924 -0.00023551 0 0.000112752 -0.000173931
          0 0 -0.000117429 -0.000112715 0 -0.000173876 -0.000136674 0 -0.000277815 -0.000114788 0 -0.000355088
          -5.9233e-05 0 -0.000375575 -1.36731e-05 0 -0.000336912 1.37516e-05 0 -0.000336923 5.93083e-05 0 -0.000375605
          0.000114853 0 -0.00035513 0.000136722 0 -0.000277865 0.000112741 0 -0.000173932 0 0 -0.000117489
          0 0 -0.00010077 -0.000102663 0 -0.000151547 0 -0.000102651 -0.000151547 -0.000112814 -0.000112802 -0.000205803
          -0.000127671 0 -0.000250025 -0.00013756 -0.000132843 -0.000313121 -0.000111063 0 -0.000327674 -0.000116904 -0.000148574 -0.000399845
          -5.96463e-05 0 -0.000349069 -6.0069e-05 -0.000154839 -0.000425134 -1.40038e-05 0 -0.000308582 -1.29872e-05 -0.000154245 -0.000383899
          1.40629e-05 0 -0.000308587 1.30459e-05 -0.000154245 -0.000383904 5.97033e-05 0 -0.000349079 6.0126e-05 -0.000154839 -0.000425144
          0.000111112 0 -0.000327685 0.000116953 -0.000148574 -0.000399856 0.000127707 0 -0.000250038 0.000137596 -0.000132842 -0.000313133
          0.000102682 0 -0.000151562 0.000112833 -0.000112801 -0.000205818 0 0 -0.000100787 0 -0.00010265 -0.000151564
          0 -0.000127648 -0.000250027 -0.000132855 -0.000137537 -0.000313122 -0.000157182 -0.000157159 -0.000441235 -0.00012579 -0.000169936 -0.000546398
          -5.51949e-05 -0.000167685 -0.000575019 -7.71488e-06 -0.000158132 -0.000526503 7.77066e-06 -0.000158133 -0.000526509 5.52505e-05 -0.000167686 -0.000575033
          0.000125839 -0.000169937 -0.000546413 0.000157217 -0.000157158 -0.00044125 0.000132873 -0.000137536 -0.000313139 0 -0.000127646 -0.000250046
          0 -0.000111031 -0.000327679 -0.000148586 -0.000116872 -0.000399849 -0.000169958 -0.000125758 -0.000546401 -0.00012176 -0.000121729 -0.000660088
          -3.37769e-05 -9.85346e-05 -0.000673823 5.67638e-06 -7.32783e-05 -0.000601379 -5.62563e-06 -7.32798e-05 -0.000601388 3.38303e-05 -9.85376e-05 -0.000673842
          0.000121808 -0.000121731 -0.000660109 0.000169994 -0.000125759 -0.000546421 0.000148604 -0.000116871 -0.000399871 0 -0.000111029 -0.000327702
          0 -5.96077e-05 -0.000349078 -0.000154849 -6.00305e-05 -0.000425142 -0.000167706 -5.51572e-05 -0.000575026 -9.85634e-05 -3.37405e-05 -0.000673827
          5.0172e-06 5.05197e-06 -0.000646352 2.61914e-05 3.91039e-05 -0.000531796 -2.61463e-05 3.91021e-05 -0.000531809 -4.96607e-06 5.04817e-06 -0.00064638
          9.86125e-05 -3.37436e-05 -0.000673857 0.000167742 -5.51584e-05 -0.000575055 0.000154868 -6.00301e-05 -0.000425172 0 -5.96062e-05 -0.000349109
          0 -1.39617e-05 -0.000308597 -0.000154255 -1.29453e-05 -0.000383914 -0.000158151 -7.67388e-06 -0.000526517 -7.33057e-05 5.71609e-06 -0.00060139
          3.90708e-05 2.62295e-05 -0.000531803 4.3032e-05 4.30684e-05 -0.000379753 -4.29894e-05 4.30678e-05 -0.000379769 -3.902e-05 2.62285e-05 -0.000531839
          7.33562e-05 5.71547e-06 -0.000601429 0.000158189 -7.67365e-06 -0.000526554 0.000154275 -1.29443e-05 -0.000383952 0 -1.39599e-05 -0.000308637
          0 1.41053e-05 -0.000308611 -0.000154255 1.3088e-05 -0.000383928 -0.000158151 7.81202e-06 -0.000526532 -7.3306e-05 -5.58549e-06 -0.000601408
          3.90704e-05 -2.61077e-05 -0.000531824 4.30329e-05 -4.29525e-05 -0.000379778 -4.29865e-05 -4.29509e-05 -0.000379795 -3.90162e-05 -2.6104e-05 -0.000531863
          7.33592e-05 -5.58148e-06 -0.000601451 0.000158191 7.81537e-06 -0.000526575 0.000154276 1.30909e-05 -0.000383972 0 1.41084e-05 -0.000308656
          0 5.97428e-05 -0.000349112 -0.000154848 6.01652e-05 -0.000425177 -0.000167704 5.52891e-05 -0.000575064 -9.85628e-05 3.38678e-05 -0.000673871
          5.01751e-06 -4.92996e-06 -0.000646404 2.61945e-05 -3.89852e-05 -0.000531857 -2.61387e-05 -3.89827e-05 -0.000531872 -4.95689e-06 -4.92411e-06 -0.00064644
          9.86197e-05 3.38736e-05 -0.000673912 0.000167746 5.52934e-05 -0.000575108 0.000154871 6.01685e-05 -0.000425224 0 5.97459e-05 -0.000349161
          0 0.000111146 -0.000327724 -0.000148583 0.000116987 -0.000399895 -0.000169954 0.000125872 -0.00054645 -0.000121756 0.00012184 -0.000660144
          -3.37737e-05 9.86432e-05 -0.000673888 5.68204e-06 7.33859e-05 -0.000601453 -5.61573e-06 7.33879e-05 -0.000601467 3.38412e-05 9.86478e-05 -0.00067392
          0.000121817 0.000121845 -0.000660184 0.000169999 0.000125875 -0.000546495 0.000148607 0.000116989 -0.000399945 0 0.000111148 -0.000327776
          0 0.000127731 -0.00025008 -0.000132851 0.000137621 -0.000313175 -0.000157176 0.000157241 -0.000441291 -0.000125783 0.000170017 -0.00054646
          -5.51883e-05 0.000167764 -0.00057509 -7.7069e-06 0.000158211 -0.000526583 7.78124e-06 0.000158212 -0.000526596 5.5261e-05 0.000167767 -0.00057512
          0.000125847 0.00017002 -0.0005465 0.000157223 0.000157243 -0.000441338 0.000132877 0.000137622 -0.000313228 0 0.000127733 -0.000250135
          0 0.000102695 -0.000151605 -0.00011281 0.000112846 -0.000205861 -0.000137553 0.000132886 -0.000313182 -0.000116895 0.000148616 -0.000399912
          -6.00601e-05 0.00015488 -0.000425209 -1.29776e-05 0.000154287 -0.000383983 1.30567e-05 0.000154287 -0.000383995 6.01359e-05 0.000154882 -0.000425238
          0.000116961 0.000148618 -0.000399952 0.000137601 0.000132888 -0.00031323 0.000112836 0.000112847 -0.000205915 0 0.000102696 -0.000151663
          0 0 -0.000100831 -0.000102658 0 -0.000151609 -0.000127663 0 -0.00025009 -0.000111053 0 -0.000327744
          -5.96363e-05 0 -0.000349147 -1.39933e-05 0 -0.000308669 1.4074e-05 0 -0.000308681 5.97133e-05 0 -0.000349177
          0.00011112 0 -0.000327785 0.000127712 0 -0.000250139 0.000102685 0 -0.000151664 0 0 -0.000100889
          0 0 -8.88485e-05 -9.3577e-05 0 -0.000134913 0 -9.35648e-05 -0.000134913 -0.000103516 -0.000103504 -0.000183164
          -0.000119422 0 -0.00022783 -0.000129697 -0.000123719 -0.000282732 -0.00010771 0 -0.000304759 -0.000114229 -0.000140513 -0.000367676
          -5.98929e-05 0 -0.000327664 -6.04274e-05 -0.000147567 -0.000394045 -1.39408e-05 0 -0.000285369 -1.27096e-05 -0.000146871 -0.000350356
          1.40006e-05 0 -0.000285374 1.2769e-05 -0.000146871 -0.000350361 5.99504e-05 0 -0.000327674 6.0485e-05 -0.000147567 -0.000394056
          0.00010776 0 -0.000304768 0.000114279 -0.000140513 -0.000367687 0.000119458 0 -0.000227842 0.000129733 -0.000123718 -0.000282745
          9.35961e-05 0 -0.000134926 0.000103535 -0.000103503 -0.000183179 0 0 -8.88637e-05 0 -9.35633e-05 -0.000134929
          0 -0.000119399 -0.000227832 -0.000123731 -0.000129674 -0.000282733 -0.00015085 -0.000150827 -0.000399971 -0.000124961 -0.000165919 -0.000502891
          -5.52616e-05 -0.000164432 -0.000532452 -6.45202e-06 -0.000153705 -0.000479719 6.50844e-06 -0.000153706 -0.000479726 5.53179e-05 -0.000164433 -0.000532466
          0.00012501 -0.000165919 -0.000502904 0.000150886 -0.000150826 -0.000399986 0.000123749 -0.000129672 -0.00028275 0 -0.000119396 -0.00022785
          0 -0.000107678 -0.000304763 -0.000140524 -0.000114197 -0.00036768 -0.000165941 -0.000124929 -0.000502893 -0.000122158 -0.000122127 -0.00061597
          -3.07799e-05 -9.63316e-05 -0.000629618 9.74423e-06 -6.63808e-05 -0.000548447 -9.693e-06 -6.63824e-05 -0.000548457 3.08344e-05 -9.63347e-05 -0.000629638
          0.000122207 -0.000122129 -0.00061599 0.000165977 -0.000124928 -0.000502913 0.000140543 -0.000114195 -0.000367701 0 -0.000107675 -0.000304785
          0 -5.98536e-05 -0.000327673 -0.000147578 -6.03883e-05 -0.000394053 -0.000164453 -5.52233e-05 -0.000532459 -9.63609e-05 -3.07429e-05 -0.000629622
          1.60501e-05 1.60856e-05 -0.000594982 3.54269e-05 5.86466e-05 -0.000461662 -3.53818e-05 5.86444e-05 -0.000461675 -1.59976e-05 1.60813e-05 -0.000595011
          9.64112e-05 -3.0746e-05 -0.000629651 0.000164489 -5.5224e-05 -0.000532487 0.000147597 -6.03872e-05 -0.000394082 0 -5.98514e-05 -0.000327702
          0 -1.38978e-05 -0.000285384 -0.000146881 -1.26669e-05 -0.00035037 -0.000153725 -6.41016e-06 -0.000479733 -6.64086e-05 9.78479e-06 -0.000548458
          5.86127e-05 3.54658e-05 -0.000461668 5.70669e-05 5.71042e-05 -0.000280158 -5.70249e-05 5.71035e-05 -0.000280176 -5.85603e-05 3.54646e-05 -0.000461706
          6.64609e-05 9.78432e-06 -0.000548497 0.000153763 -6.40946e-06 -0.00047977 0.000146901 -1.26652e-05 -0.000350407 0 -1.38954e-05 -0.000285422
          0 1.4044e-05 -0.000285397 -0.000146881 1.2812e-05 -0.000350384 -0.000153724 6.55072e-06 -0.000479748 -6.6409e-05 -9.65193e-06 -0.000548475
          5.8612e-05 -3.53423e-05 -0.00046169 5.70677e-05 -5.6987e-05 -0.000280184 -5.70216e-05 -5.6985e-05 -0.000280203 -5.8556e-05 -3.53376e-05 -0.00046173
          6.64642e-05 -9.64697e-06 -0.000548518 0.000153765 6.55487e-06 -0.00047979 0.000146902 1.28156e-05 -0.000350426 0 1.40477e-05 -0.000285441
          0 5.99907e-05 -0.000327706 -0.000147577 6.0525e-05 -0.000394087 -0.000164451 5.53574e-05 -0.000532496 -9.63604e-05 3.08727e-05 -0.000629665