<?xml version="1.0"?>
<VTKFile type="UnstructuredGrid" version="0.1" byte_order="LittleEndian">
  <UnstructuredGrid>
    <Piece NumberOfCells="3025" NumberOfPoints="3744">
      <PointData Vectors="disp">
        <DataArray type="Float32" Name="disp" NumberOfComponents="3" format="ascii">
          0 0 -5.1766e-05 0.000103044 0 -0.000140017 0 0.00010306 -0.000140009 0.000122077 0.000122093 -0.000234101
          0 0 -6.69724e-06 0.000118587 0 -9.46633e-05 0 0.000118602 -9.46556e-05 0.000137217 0.000137233 -0.000188292
          0.000346932 0 -0.000275382 0.000401414 0.00019561 -0.00037029 0.000354828 0 -0.000235851 0.000406934 0.000207971 -0.000331142
          0.000669197 0 -0.000234191 0.000764005 0.000344905 -0.000301542 0.000640916 0 -0.00020471 0.000730157 0.000349322 -0.000273485
          0.000845507 0 0.000208437 0.000949296 0.000543508 0.000197777 0.000773273 0 0.000248396 0.000870734 0.000536031 0.000238142
          0.00042271 0 0.000869969 0.00046971 0.000694305 0.000911142 0.000377344 0 0.000942593 0.000421514 0.000677671 0.000987454
          -0.000422811 0 0.000869903 -0.000469834 0.000694293 0.000911069 -0.000377433 0 0.000942523 -0.000421625 0.00067766 0.000987378
          -0.000845514 0 0.000208326 -0.000949314 0.000543481 0.000197654 -0.000773281 0 0.000248281 -0.000870753 0.000536006 0.000238014
          -0.000669152 0 -0.000234254 -0.000763961 0.000344881 -0.000301613 -0.000640877 0 -0.000204772 -0.00073012 0.0003493 -0.000273554
          -0.000346898 0 -0.000275412 -0.000401379 0.000195597 -0.000370323 -0.000354797 0 -0.000235879 -0.000406902 0.000207958 -0.000331172
          -0.000103029 0 -0.000140043 -0.000122063 0.000122086 -0.000234127 -0.000118572 0 -9.46888e-05 -0.000137203 0.000137226 -0.000188317
          0 0 -5.17958e-05 0 0.000103055 -0.000140037 0 0 -6.72575e-06 0 0.000118597 -9.46823e-05
          0 0.000346956 -0.000275372 0.000195593 0.000401439 -0.000370287 0 0.000354853 -0.00023584 0.000207954 0.00040696 -0.000331139
          0.000586447 0.000586474 -0.000475236 0.000582238 0.000582266 -0.000445725 0.00106757 0.000925785 -0.000290197 0.00101511 0.000901185 -0.00027265
          0.00127172 0.00135319 0.000407229 0.00117334 0.00130206 0.000445169 0.000613793 0.00166892 0.00129131 0.000556951 0.00159848 0.00137672
          -0.000613983 0.00166889 0.00129122 -0.000557125 0.00159846 0.00137662 -0.00127177 0.00135312 0.000407067 -0.00117339 0.001302 0.000445
          -0.00106752 0.000925728 -0.000290298 -0.00101508 0.000901132 -0.00027275 -0.000586405 0.000586437 -0.000475281 -0.000582201 0.000582232 -0.000445767
          -0.000195576 0.000401416 -0.000370316 -0.000207938 0.000406938 -0.000331165 0 0.000346937 -0.000275399 0 0.000354835 -0.000235865
          0 0.000669231 -0.000234198 0.000344886 0.00076404 -0.000301556 0 0.000640953 -0.000204716 0.000349304 0.000730195 -0.000273499
          0.000925757 0.00106761 -0.000290214 0.000901156 0.00101515 -0.000272667 0.00158926 0.0015893 0.000156641 0.00150412 0.00150416 0.000169316
          0.00180448 0.00221635 0.00123503 0.0016738 0.00209276 0.00129002 0.000847504 0.00266711 0.00242607 0.000777009 0.00251687 0.00255245
          -0.000847786 0.00266707 0.00242594 -0.00077727 0.00251683 0.00255231 -0.00180456 0.00221626 0.00123479 -0.00167389 0.00209268 0.00128977
          -0.0015892 0.0015892 0.000156473 -0.00150407 0.00150407 0.000169147 -0.000925693 0.00106754 -0.000290297 -0.000901098 0.00101509 -0.000272747
          -0.000344858 0.000763989 -0.000301606 -0.000349278 0.000730149 -0.000273545 0 0.000669187 -0.000234242 0 0.000640912 -0.000204757
          0 0.000845558 0.000208413 0.00054349 0.000949348 0.000197746 0 0.000773325 0.000248372 0.000536014 0.000870788 0.000238111
          0.00135316 0.00127178 0.000407198 0.00130203 0.0011734 0.000445137 0.00221632 0.00180453 0.00123502 0.00209272 0.00167386 0.00129001
          0.00242424 0.00242429 0.00281797 0.00225758 0.00225763 0.00295425 0.00111497 0.00286077 0.00439569 0.00102965 0.00266994 0.00463904
          -0.00111535 0.00286073 0.00439551 -0.00102999 0.00266991 0.00463886 -0.00242435 0.00242421 0.00281762 -0.00225769 0.00225755 0.00295388
          -0.00221624 0.00180444 0.00123475 -0.00209265 0.00167378 0.00128973 -0.00135306 0.0012717 0.00040704 -0.00130194 0.00117333 0.000444981
          -0.000543443 0.000949287 0.000197645 -0.00053597 0.000870733 0.000238012 0 0.000845502 0.000208324 0 0.000773275 0.000248285
          0 0.000422772 0.000869936 0.000694289 0.000469773 0.000911103 0 0.000377407 0.000942561 0.000677655 0.000421578 0.000987416
          0.00166889 0.000613857 0.00129128 0.00159846 0.000557017 0.00137668 0.00266707 0.000847568 0.00242605 0.00251683 0.000777074 0.00255243
          0.00286072 0.00111503 0.00439569 0.00266989 0.00102971 0.00463904 0.00130136 0.00130142 0.00626119 0.00120623 0.00120629 0.00664157
          -0.00130178 0.00130142 0.00626098 -0.00120662 0.00120629 0.00664135 -0.00286084 0.00111503 0.00439527 -0.00267001 0.0010297 0.0046386
          -0.00266697 0.000847563 0.0024257 -0.00251674 0.000777071 0.00255207 -0.00166877 0.00061385 0.00129105 -0.00159834 0.000557013 0.00137645
          -0.000694226 0.000469762 0.000910949 -0.000677596 0.00042157 0.000987261 0 0.00042276 0.000869799 0 0.000377397 0.000942422
          0 -0.000422747 0.000869851 0.000694279 -0.000469769 0.000911012 0 -0.000377366 0.000942472 0.000677646 -0.000421557 0.000987321
          0.00166887 -0.000613918 0.00129117 0.00159844 -0.000557058 0.00137657 0.00266704 -0.000847723 0.00242591 0.0025168 -0.000777205 0.00255228
          0.00286069 -0.00111529 0.0043955 0.00266987 -0.00102993 0.00463885 0.00130137 -0.00130173 0.00626098 0.00120624 -0.00120656 0.00664134
          -0.00130173 -0.00130168 0.00626078 -0.00120657 -0.00120652 0.00664113 -0.00286078 -0.00111518 0.0043951 -0.00266995 -0.00102983 0.00463842
          -0.00266692 -0.000847608 0.00242558 -0.00251669 -0.000777095 0.00255194 -0.00166873 -0.000613824 0.00129096 -0.00159831 -0.000556969 0.00137636
          -0.00069421 -0.000469702 0.000910866 -0.00067758 -0.000421494 0.000987176 0 -0.000422689 0.000869717 0 -0.000377311 0.000942339
          0 -0.000845448 0.000208249 0.000543469 -0.000949248 0.000197571 0 -0.000773212 0.000248205 0.000535995 -0.000870684 0.000237932
          0.00135311 -0.00127171 0.000406987 0.00130198 -0.00117332 0.000444921 0.00221624 -0.0018045 0.00123474 0.00209265 -0.00167382 0.00128972
          0.00242417 -0.0024243 0.00281759 0.00225752 -0.00225763 0.00295385 0.00111498 -0.00286079 0.00439524 0.00102966 -0.00266996 0.00463857
          -0.00111523 -0.00286073 0.00439508 -0.00102988 -0.0026699 0.00463841 -0.00242419 -0.00242415 0.00281729 -0.00225753 -0.00225749 0.00295354
          -0.0022161 -0.00180434 0.00123451 -0.00209252 -0.00167367 0.00128949 -0.00135298 -0.00127157 0.000406853 -0.00130186 -0.0011732 0.000444792
          -0.000543405 -0.000949153 0.000197478 -0.000535933 -0.000870595 0.000237844 0 -0.000845366 0.000208159 0 -0.000773135 0.00024812
          0 -0.000669087 -0.000234338 0.000344869 -0.000763897 -0.000301704 0 -0.000640812 -0.000204854 0.000349289 -0.000730056 -0.000273645
          0.000925712 -0.00106746 -0.000290388 0.000901115 -0.00101502 -0.00027284 0.00158918 -0.00158915 0.000156405 0.00150405 -0.00150401 0.00016908
          0.00180441 -0.00221619 0.0012347 0.00167374 -0.0020926 0.00128969 0.000847521 -0.00266693 0.00242566 0.000777028 -0.00251669 0.00255203
          -0.000847651 -0.00266687 0.00242555 -0.000777139 -0.00251664 0.00255191 -0.00180438 -0.00221606 0.0012345 -0.00167371 -0.00209248 0.00128948
          -0.00158905 -0.00158901 0.000156266 -0.00150393 -0.00150389 0.000168944 -0.000925605 -0.00106736 -0.000290465 -0.000901013 -0.00101492 -0.000272911
          -0.000344818 -0.000763827 -0.000301765 -0.000349239 -0.000729989 -0.0002737 0 -0.000669029 -0.000234403 0 -0.000640756 -0.000204915
          0 -0.000346849 -0.00027549 0.000195583 -0.000401331 -0.00037041 0 -0.000354748 -0.000235955 0.000207946 -0.000406854 -0.000331258
          0.000586419 -0.00058636 -0.000475373 0.000582213 -0.000582155 -0.000445857 0.00106751 -0.000925653 -0.000290372 0.00101507 -0.000901057 -0.000272819
          0.00127167 -0.00135303 0.000406985 0.0011733 -0.0013019 0.000444927 0.000613809 -0.00166874 0.00129101 0.00055697 -0.00159831 0.00137641
          -0.000613867 -0.0016687 0.00129093 -0.000557014 -0.00159828 0.00137632 -0.00127162 -0.00135295 0.000406842 -0.00117325 -0.00130183 0.000444782
          -0.00106741 -0.000925574 -0.000290466 -0.00101497 -0.000900981 -0.000272911 -0.000586338 -0.000586303 -0.000475433 -0.000582134 -0.000582098 -0.000445912
          -0.000195545 -0.000401292 -0.000370471 -0.000207906 -0.000406814 -0.000331314 0 -0.000346816 -0.00027556 0 -0.000354714 -0.00023602
          0 -0.000103007 -0.000140127 0.000122071 -0.000122041 -0.000234222 0 -0.000118549 -9.47699e-05 0.000137212 -0.00013718 -0.00018841
          0.000401396 -0.000195556 -0.00037042 0.000406918 -0.000207916 -0.000331267 0.000763966 -0.000344841 -0.000301697 0.000730124 -0.000349258 -0.000273634
          0.000949254 -0.000543429 0.00019757 0.000870698 -0.000535954 0.000237939 0.00046972 -0.000694214 0.000910882 0.000421527 -0.000677582 0.000987195
          -0.000469745 -0.000694199 0.000910814 -0.00042154 -0.000677567 0.000987125 -0.0009492 -0.000543394 0.000197452 -0.000870644 -0.00053592 0.000237819
          -0.000763876 -0.000344805 -0.000301778 -0.000730038 -0.000349224 -0.000273713 -0.00040133 -0.00019553 -0.000370482 -0.000406852 -0.000207889 -0.000331326
          -0.000122039 -0.000122022 -0.000234292 -0.000137179 -0.00013716 -0.000188476 0 -0.000102991 -0.000140207 0 -0.000118531 -9.4847e-05
          0 0 -5.18903e-05 0.000103039 0 -0.000140144 0 0 -6.81789e-06 0.000118583 0 -9.47867e-05
          0.000346917 0 -0.000275518 0.000354815 0 -0.000235982 0.000669163 0 -0.00023435 0.000640887 0 -0.000204863
          0.000845469 0 0.000208231 0.00077324 0 0.000248195 0.000422717 0 0.000869714 0.000377354 0 0.000942339
          -0.000422733 0 0.00086965 -0.000377359 0 0.000942272 -0.000845414 0 0.000208119 -0.000773186 0 0.000248081
          -0.000669078 0 -0.000234429 -0.000640806 0 -0.00020494 -0.000346855 0 -0.000275583 -0.000354753 0 -0.000236044
          -0.000103009 0 -0.000140219 -0.000118551 0 -9.4859e-05 0 0 -5.19758e-05 0 0 -6.90006e-06
          0 0 4.48993e-06 0.00013204 0 -7.84111e-05 0 0.000132055 -7.84031e-05 0.000149123 0.000149138 -0.000165263
          0.000358166 0 -0.000219521 0.000406489 0.000214547 -0.000306668 0.000606248 0 -0.000195707 0.000689541 0.000346168 -0.000256817
          0.000706892 0 0.000263106 0.00079976 0.000522336 0.000262131 0.000341062 0 0.000982486 0.000383808 0.000657958 0.00103994
          -0.00034114 0 0.000982414 -0.000383908 0.000657948 0.00103986 -0.000706899 0 0.000262988 -0.000799777 0.000522313 0.000262
          -0.000606214 0 -0.000195768 -0.000689509 0.000346148 -0.000256886 -0.000358137 0 -0.000219549 -0.000406461 0.000214535 -0.000306697
          -0.000132026 0 -7.84356e-05 -0.00014911 0.000149132 -0.000165287 0 0 4.46293e-06 0 0.000132049 -7.84284e-05
          0 0.000358192 -0.00021951 0.000214531 0.000406516 -0.000306664 0.000569142 0.000569171 -0.000420415 0.00095695 0.000867621 -0.000256905
          0.00109016 0.00124928 0.00047499 0.000515843 0.00153611 0.00144682 -0.000516004 0.00153608 0.00144672 -0.0010902 0.00124922 0.000474816
          -0.000956918 0.000867574 -0.000257003 -0.00056911 0.00056914 -0.000420454 -0.000214516 0.000406496 -0.000306689 0 0.000358174 -0.000219534
          0 0.000606286 -0.000195714 0.000346151 0.000689581 -0.000256832 0.000867591 0.000956992 -0.000256922 0.00142235 0.00142239 0.000179622
          0.00157774 0.00199373 0.00133582 0.000733583 0.00241224 0.00266519 -0.00073383 0.0024122 0.00266504 -0.00157781 0.00199365 0.00133556
          -0.00142231 0.00142231 0.000179453 -0.00086754 0.000956934 -0.000256998 -0.000346127 0.000689539 -0.000256875 0 0.00060625 -0.000195752
          0 0.000706946 0.000263083 0.000522319 0.000799815 0.0002621 0.00124925 0.00109021 0.000474958 0.00199369 0.0015778 0.00133581
          0.0021575 0.00215755 0.0030796 0.000988181 0.00257341 0.00487492 -0.000988515 0.00257338 0.00487472 -0.0021576 0.00215748 0.00307921
          -0.00199362 0.00157771 0.00133553 -0.00124916 0.00109015 0.000474803 -0.000522279 0.000799765 0.000262003 0 0.000706901 0.000262997
          0 0.000341127 0.000982455 0.000657943 0.000383874 0.0010399 0.00153608 0.00051591 0.00144678 0.0024122 0.000733649 0.00266517
          0.00257336 0.000988244 0.00487492 0.00116876 0.00116882 0.00702674 -0.00116913 0.00116882 0.0070265 -0.00257347 0.00098824 0.00487444
          -0.00241211 0.000733647 0.00266479 -0.00153597 0.000515907 0.00144656 -0.000657888 0.000383867 0.00103975 0 0.000341118 0.000982316
          0 -0.00034107 0.000982364 0.000657934 -0.000383837 0.0010398 0.00153606 -0.000515934 0.00144667 0.00241217 -0.000733763 0.00266502
          0.00257333 -0.000988452 0.00487471 0.00116877 -0.00116908 0.0070265 -0.00116909 -0.00116903 0.00702627 -0.0025734 -0.000988352 0.00487426
          -0.00241205 -0.000733653 0.00266466 -0.00153594 -0.000515847 0.00144646 -0.000657872 -0.000383776 0.00103966 0 -0.000341018 0.000982232
          0 -0.000706828 0.000262913 0.000522301 -0.000799707 0.000261919 0.0012492 -0.00109013 0.000474738 0.00199362 -0.00157775 0.00133551
          0.00215744 -0.00215754 0.00307918 0.000988194 -0.00257342 0.00487442 -0.000988399 -0.00257336 0.00487424 -0.00215745 -0.0021574 0.00307885
          -0.00199349 -0.0015776 0.00133528 -0.00124909 -0.00109001 0.000474613 -0.000522243 -0.000799622 0.000261835 0 -0.000706756 0.000262832
          0 -0.000606148 -0.000195849 0.000346137 -0.000689444 -0.000256975 0.000867555 -0.000956856 -0.000257092 0.00142229 -0.00142225 0.000179387
          0.00157768 -0.00199357 0.00133548 0.000733603 -0.00241206 0.00266475 -0.000733699 -0.00241201 0.00266463 -0.00157764 -0.00199345 0.00133527
          -0.00142217 -0.00142213 0.000179254 -0.000867458 -0.000956765 -0.000257157 -0.000346089 -0.000689381 -0.000257026 0 -0.000606095 -0.000195906
          0 -0.000358088 -0.000219622 0.000214524 -0.000406412 -0.00030678 0.000569121 -0.000569064 -0.000420542 0.000956908 -0.000867498 -0.000257068
          0.00109012 -0.00124913 0.000474752 0.000515863 -0.00153594 0.00144651 -0.000515895 -0.00153591 0.00144643 -0.00109006 -0.00124906 0.000474604
          -0.000956812 -0.000867426 -0.000257156 -0.000569045 -0.000569009 -0.000420593 -0.000214485 -0.000406373 -0.000306834 0 -0.000358053 -0.000219684
          0 -0.000132001 -7.85141e-05 0.000149119 -0.000149085 -0.000165377 0.000406476 -0.000214492 -0.000306789 0.000689512 -0.000346106 -0.000256962
          0.000799729 -0.00052226 0.000261932 0.000383823 -0.000657871 0.00103968 -0.000383825 -0.000657857 0.00103961 -0.000799674 -0.000522228 0.000261811
          -0.00068943 -0.000346073 -0.000257038 -0.000406412 -0.000214466 -0.000306845 -0.000149084 -0.000149064 -0.000165441 0 -0.000131982 -7.85874e-05
          0 0 4.37329e-06 0.000132037 0 -7.85305e-05 0.000358154 0 -0.000219649 0.000606223 0 -0.000195856
          0.000706865 0 0.000262909 0.000341074 0 0.000982235 -0.000341068 0 0.000982167 -0.000706809 0 0.000262794
          -0.000606146 0 -0.000195931 -0.000358093 0 -0.000219708 -0.000132003 0 -7.85997e-05 0 0 4.29519e-06
          0 0 -6.66567e-07 0.000143457 0 -7.7682e-05 0 0.000143471 -7.76739e-05 0.000158791 0.000158805 -0.000156519
          0.000357098 0 -0.000214713 0.000400769 0.000217812 -0.000291559 0.00056725 0 -0.000195059 0.00064441 0.000338647 -0.000246226
          0.000645835 0 0.000263278 0.000735729 0.000505707 0.000273377 0.000311997 0 0.00100247 0.00035464 0.000638253 0.00107452
          -0.000312065 0 0.0010024 -0.00035473 0.000638243 0.00107444 -0.00064584 0 0.000263159 -0.000735744 0.000505686 0.000273245
          -0.000567221 0 -0.000195119 -0.000644382 0.000338629 -0.000246294 -0.000357072 0 -0.00021474 -0.000400744 0.000217802 -0.000291588
          -0.000143442 0 -7.77055e-05 -0.000158777 0.000158799 -0.000156542 0 0 -6.91849e-07 0 0.000143465 -7.76977e-05
          0 0.000357125 -0.000214702 0.000217796 0.000400797 -0.000291556 0.000548723 0.000548753 -0.00039865 0.000895276 0.000826747 -0.000243323
          0.00102074 0.00119558 0.000493885 0.000488124 0.00148155 0.00150178 -0.000488275 0.00148152 0.00150168 -0.00102078 0.00119553 0.000493708
          -0.000895248 0.000826704 -0.000243419 -0.000548696 0.000548726 -0.000398687 -0.000217783 0.000400778 -0.00029158 0 0.000357109 -0.000214725
          0 0.000567291 -0.000195065 0.00033863 0.000644452 -0.00024624 0.000826716 0.00089532 -0.00024334 0.00134477 0.00134481 0.000184413
          0.00151287 0.00191762 0.00136646 0.00071408 0.00234975 0.00276337 -0.000714319 0.00234971 0.00276322 -0.00151294 0.00191753 0.00136619
          -0.00134472 0.00134473 0.000184246 -0.000826671 0.000895267 -0.000243412 -0.000338609 0.000644415 -0.000246281 0 0.000567259 -0.000195101
          0 0.00064589 0.000263255 0.000505691 0.000735786 0.000273346 0.00119555 0.0010208 0.000493853 0.00191757 0.00151293 0.00136645
          0.00211814 0.00211819 0.00318817 0.000986594 0.00256384 0.00510778 -0.000986926 0.00256381 0.00510757 -0.00211823 0.00211811 0.00318777
          -0.0019175 0.00151285 0.00136616 -0.00119547 0.00102074 0.000493701 -0.000505654 0.00073574 0.000273253 0 0.00064585 0.000263172
          0 0.000312064 0.00100244 0.000638238 0.000354708 0.00107449 0.00148152 0.000488192 0.00150175 0.00234971 0.000714147 0.00276335
          0.00256379 0.000986658 0.00510778 0.00118456 0.00118462 0.00743749 -0.00118493 0.00118461 0.00743722 -0.00256389 0.000986651 0.00510727
          -0.00234961 0.000714143 0.00276296 -0.00148141 0.000488189 0.00150152 -0.000638185 0.000354701 0.00107433 0 0.000312056 0.0010023
          0 -0.000311993 0.00100235 0.00063823 -0.000354657 0.00107439 0.0014815 -0.000488203 0.00150163 0.00234968 -0.00071425 0.00276319
          0.00256376 -0.00098686 0.00510756 0.00118456 -0.00118487 0.00743722 -0.00118488 -0.00118483 0.00743697 -0.00256382 -0.000986754 0.00510708
          -0.00234955 -0.000714136 0.00276282 -0.00148138 -0.000488115 0.00150142 -0.00063817 -0.000354597 0.00107424 0 -0.000311943 0.00100222
          0 -0.000645767 0.000263085 0.000505674 -0.000735671 0.000273165 0.00119551 -0.00102071 0.000493631 0.0019175 -0.00151287 0.00136614
          0.00211807 -0.00211817 0.00318774 0.000986603 -0.00256383 0.00510725 -0.000986803 -0.00256377 0.00510706 -0.00211806 -0.00211802 0.0031874
          -0.00191737 -0.00151272 0.00136591 -0.00119539 -0.00102059 0.000493513 -0.000505619 -0.000735592 0.000273086 0 -0.0006457 0.000263009
          0 -0.000567155 -0.000195198 0.000338619 -0.000644317 -0.000246381 0.000826684 -0.000895185 -0.000243506 0.00134471 -0.00134467 0.000184181
          0.00151281 -0.00191745 0.00136612 0.000714098 -0.00234956 0.00276292 -0.000714184 -0.00234951 0.0027628 -0.00151276 -0.00191733 0.0013659
          -0.00134459 -0.00134455 0.000184055 -0.000826593 -0.000895099 -0.000243565 -0.000338572 -0.000644258 -0.000246428 0 -0.000567105 -0.000195251
          0 -0.000357023 -0.000214811 0.000217791 -0.000400695 -0.000291669 0.000548706 -0.000548649 -0.000398774 0.000895239 -0.000826628 -0.000243481
          0.0010207 -0.00119543 0.000493652 0.000488144 -0.00148137 0.00150147 -0.000488165 -0.00148134 0.00150139 -0.00102064 -0.00119536 0.000493505
          -0.000895147 -0.00082656 -0.000243564 -0.000548634 -0.000548598 -0.000398822 -0.000217752 -0.000400656 -0.00029172 0 -0.000356988 -0.00021487
          0 -0.000143416 -7.77815e-05 0.000158787 -0.000158751 -0.00015663 0.000400758 -0.000217758 -0.000291678 0.000644387 -0.000338587 -0.000246366
          0.000735703 -0.000505634 0.000273183 0.000354656 -0.000638167 0.00107427 -0.000354648 -0.000638153 0.0010742 -0.000735645 -0.000505603 0.000273063
          -0.000644309 -0.000338555 -0.000246439 -0.000400696 -0.000217732 -0.000291731 -0.000158751 -0.00015873 -0.000156691 0 -0.000143396 -7.78507e-05
          0 0 -7.78777e-07 0.000143453 0 -7.77971e-05 0.000357088 0 -0.000214837 0.000567231 0 -0.000195203
          0.000645812 0 0.000263086 0.00031201 0 0.00100222 -0.000311995 0 0.00100215 -0.000645755 0 0.000262972
          -0.000567157 0 -0.000195275 -0.000357028 0 -0.000214894 -0.000143418 0 -7.7863e-05 0 0 -8.52396e-07
          0 0 -1.38583e-05 0.00015243 0 -8.54011e-05 0 0.000152444 -8.5393e-05 0.000166264 0.000166278 -0.000156594
          0.000352382 0 -0.000215235 0.000391113 0.000218845 -0.000281755 0.000525526 0 -0.000196617 0.000596455 0.000328509 -0.000238022
          0.000589486 0 0.000254375 0.000677839 0.000487799 0.000274638 0.000288725 0 0.00100928 0.000332529 0.000619965 0.00109539
          -0.000288784 0 0.00100921 -0.000332609 0.000619955 0.00109531 -0.000589488 0 0.000254256 -0.00067785 0.000487778 0.000274505
          -0.0005255 0 -0.000196676 -0.000596431 0.000328494 -0.000238088 -0.000352359 0 -0.000215262 -0.000391092 0.000218836 -0.000281783
          -0.000152415 0 -8.54236e-05 -0.00016625 0.000166272 -0.000156617 0 0 -1.38817e-05 0 0.000152438 -8.54151e-05
          0 0.00035241 -0.000215224 0.000218829 0.000391142 -0.000281751 0.000523256 0.000523287 -0.00037845 0.000831291 0.000780611 -0.000231181
          0.000963349 0.00114168 0.000500747 0.000472086 0.0014346 0.00154243 -0.000472229 0.00143458 0.00154232 -0.000963382 0.00114163 0.000500569
          -0.000831266 0.000780571 -0.000231273 -0.000523235 0.000523265 -0.000378485 -0.000218818 0.000391126 -0.000281775 0 0.000352395 -0.000215246
          0 0.000525569 -0.000196623 0.000328493 0.000596499 -0.000238036 0.000780579 0.000831337 -0.000231198 0.0012705 0.00127054 0.000181152
          0.00147581 0.00186115 0.0013765 0.000716628 0.00232524 0.0028454 -0.000716864 0.0023252 0.00284524 -0.00147586 0.00186106 0.00137623
          -0.00127045 0.00127047 0.00018099 -0.00078054 0.00083129 -0.000231265 -0.000328475 0.000596467 -0.000238075 0 0.000525541 -0.000196658
          0 0.000589543 0.000254352 0.000487782 0.000677898 0.000274607 0.00114165 0.000963409 0.000500715 0.0018611 0.00147587 0.00137649
          0.00213548 0.00213554 0.00327418 0.00102366 0.00263816 0.00534163 -0.001024 0.00263811 0.0053414 -0.00213556 0.00213544 0.00327375
          -0.00186102 0.00147577 0.0013762 -0.00114158 0.000963348 0.000500569 -0.000487749 0.000677855 0.000274517 0 0.000589506 0.000254272
          0 0.000288793 0.00100925 0.00061995 0.000332598 0.00109535 0.00143457 0.000472156 0.00154239 0.0023252 0.000716696 0.00284539
          0.0026381 0.00102372 0.00534163 0.00125355 0.00125361 0.00789519 -0.00125395 0.00125361 0.0078949 -0.00263818 0.00102371 0.00534107
          -0.00232508 0.000716687 0.00284498 -0.00143447 0.000472151 0.00154216 -0.000619899 0.000332592 0.0010952 0 0.000288786 0.00100912
          0 -0.000288709 0.00100916 0.000619941 -0.000332534 0.00109525 0.00143455 -0.000472154 0.00154227 0.00232516 -0.000716792 0.00284522
          0.00263806 -0.00102393 0.00534139 0.00125355 -0.00125389 0.0078949 -0.00125389 -0.00125384 0.00789462 -0.0026381 -0.00102381 0.00534087
          -0.00232502 -0.000716669 0.00284484 -0.00143443 -0.000472064 0.00154206 -0.000619884 -0.000332475 0.00109511 0 -0.00028866 0.00100903
          0 -0.000589413 0.000254184 0.000487767 -0.000677776 0.000274426 0.00114161 -0.000963309 0.000500493 0.00186102 -0.00147579 0.00137618
          0.0021354 -0.00213549 0.00327372 0.00102366 -0.00263812 0.00534105 -0.00102386 -0.00263805 0.00534085 -0.00213538 -0.00213533 0.00327336
          -0.00186089 -0.00147563 0.00137595 -0.0011415 -0.000963194 0.000500383 -0.000487715 -0.0006777 0.000274352 0 -0.000589351 0.000254111
          0 -0.000525434 -0.000196753 0.000328483 -0.000596365 -0.000238173 0.00078055 -0.000831201 -0.000231359 0.00127044 -0.00127039 0.000180927
          0.00147573 -0.00186096 0.00137616 0.000716641 -0.00232503 0.00284494 -0.000716719 -0.00232497 0.00284481 -0.00147568 -0.00186084 0.00137594
          -0.00127032 -0.00127028 0.000180809 -0.000780467 -0.000831123 -0.000231412 -0.00032844 -0.000596312 -0.000238218 0 -0.000525388 -0.000196803
          0 -0.00035231 -0.000215331 0.000218825 -0.000391043 -0.000281862 0.000523244 -0.000523187 -0.00037857 0.00083126 -0.000780496 -0.000231332
          0.000963309 -0.00114154 0.000500521 0.000472104 -0.00143443 0.00154212 -0.000472115 -0.0014344 0.00154203 -0.000963247 -0.00114147 0.000500376
          -0.000831172 -0.000780432 -0.000231411 -0.000523177 -0.000523139 -0.000378616 -0.000218787 -0.000391005 -0.000281911 0 -0.000352275 -0.000215386
          0 -0.000152388 -8.5497e-05 0.000166261 -0.000166224 -0.000156702 0.000391105 -0.000218792 -0.00028187 0.000596438 -0.000328451 -0.000238158
          0.000677816 -0.000487727 0.00027445 0.000332545 -0.00061988 0.00109514 -0.000332528 -0.000619866 0.00109507 -0.000677756 -0.000487697 0.000274331
          -0.000596363 -0.000328421 -0.000238228 -0.000391045 -0.000218766 -0.000281921 -0.000166224 -0.000166202 -0.000156759 0 -0.000152368 -8.55616e-05
          0 0 -1.39657e-05 0.000152427 0 -8.55115e-05 0.000352374 0 -0.000215355 0.000525511 0 -0.000196757
          0.000589467 0 0.000254188 0.000288739 0 0.00100904 -0.000288714 0 0.00100897 -0.000589408 0 0.000254076
          -0.000525441 0 -0.000196826 -0.000352316 0 -0.000215409 -0.000152391 0 -8.55737e-05 0 0 -1.40345e-05
          0 0 -3.07182e-05 0.000158483 0 -9.76394e-05 0 0.000158497 -9.76314e-05 0.000171317 0.000171332 -0.000162076
          0.000344921 0 -0.000217872 0.000378984 0.000218231 -0.000274602 0.000482511 0 -0.000197185 0.000547153 0.000316941 -0.000229644
          0.000537103 0 0.000239311 0.000625097 0.000469584 0.000267954 0.000270156 0 0.00100646 0.00031637 0.000603801 0.00110533
          -0.000270207 0 0.00100638 -0.000316442 0.000603791 0.00110524 -0.000537101 0 0.000239193 -0.000625103 0.000469565 0.000267822
          -0.000482488 0 -0.000197242 -0.000547133 0.000316928 -0.000229707 -0.000344901 0 -0.000217899 -0.000378967 0.000218224 -0.00027463
          -0.000158467 0 -9.76609e-05 -0.000171304 0.000171325 -0.000162098 0 0 -3.07395e-05 0 0.00015849 -9.76517e-05
          0 0.00034495 -0.000217861 0.000218215 0.000379014 -0.000274598 0.000495198 0.00049523 -0.000357715 0.000765706 0.000731296 -0.000218863
          0.000915877 0.001088 0.000495528 0.000466577 0.00139479 0.00156981 -0.000466714 0.00139477 0.00156969 -0.000915901 0.00108795 0.000495351
          -0.000765683 0.000731261 -0.00021895 -0.000495183 0.000495212 -0.000357751 -0.000218205 0.000379 -0.000274622 0 0.000344936 -0.000217882
          0 0.000482555 -0.00019719 0.000316925 0.000547199 -0.000229657 0.000731263 0.000765754 -0.000218879 0.00119748 0.00119753 0.000168646
          0.00146287 0.00181959 0.00136085 0.00074055 0.00233378 0.00290904 -0.000740789 0.00233373 0.00290887 -0.00146291 0.0018195 0.00136057
          -0.00119743 0.00119745 0.000168493 -0.000731231 0.000765713 -0.000218941 -0.00031691 0.000547173 -0.000229696 0 0.000482532 -0.000197225
          0 0.000537162 0.000239288 0.000469568 0.000625157 0.000267923 0.00108797 0.000915938 0.000495497 0.00181955 0.00146293 0.00136083
          0.00220684 0.0022069 0.00333039 0.00110097 0.00279711 0.0055795 -0.00110133 0.00279705 0.00557924 -0.0022069 0.00220678 0.00332994
          -0.00181945 0.00146282 0.00136054 -0.0010879 0.000915876 0.000495358 -0.000469538 0.000625117 0.000267836 0 0.000537128 0.000239211
          0 0.000270227 0.00100643 0.000603786 0.000316441 0.00110529 0.00139476 0.000466649 0.00156977 0.00233374 0.00074062 0.00290902
          0.00279706 0.00110104 0.0055795 0.00138035 0.00138041 0.00842385 -0.00138078 0.0013804 0.00842352 -0.00279711 0.00110101 0.00557888
          -0.00233359 0.000740604 0.0029086 -0.00139465 0.000466641 0.00156954 -0.000603737 0.000316434 0.00110514 0 0.000270219 0.0010063
          0 -0.00027013 0.00100634 0.000603777 -0.000316365 0.00110519 0.00139474 -0.000466637 0.00156964 0.00233369 -0.000740715 0.00290884
          0.002797 -0.00110126 0.00557923 0.00138034 -0.00138072 0.00842351 -0.00138072 -0.00138066 0.0084232 -0.00279702 -0.00110113 0.00557866
          -0.00233353 -0.000740579 0.00290845 -0.00139462 -0.000466542 0.00156944 -0.000603722 -0.000316305 0.00110505 0 -0.000270081 0.00100621
          0 -0.000537024 0.000239122 0.000469553 -0.000625027 0.000267745 0.00108793 -0.000915826 0.000495277 0.00181946 -0.00146284 0.00136052
          0.00220673 -0.00220683 0.00332991 0.00110096 -0.00279705 0.00557886 -0.00110118 -0.00279697 0.00557864 -0.0022067 -0.00220665 0.00332953
          -0.00181931 -0.00146266 0.0013603 -0.00108783 -0.000915713 0.000495177 -0.000469505 -0.000624956 0.000267676 0 -0.000536967 0.000239055
          0 -0.000482422 -0.000197317 0.000316917 -0.000547066 -0.00022979 0.000731239 -0.000765617 -0.000219033 0.00119742 -0.00119737 0.000168432
          0.00146278 -0.00181939 0.0013605 0.000740556 -0.00233354 0.00290856 -0.00074063 -0.00233348 0.00290843 -0.00146272 -0.00181927 0.00136029
          -0.0011973 -0.00119726 0.000168326 -0.000731163 -0.000765547 -0.000219081 -0.000316876 -0.000547018 -0.000229834 0 -0.00048238 -0.000197364
          0 -0.000344851 -0.000217966 0.000218213 -0.000378917 -0.000274707 0.00049519 -0.000495134 -0.000357832 0.000765681 -0.000731186 -0.000219006
          0.000915835 -0.00108786 0.000495312 0.000466593 -0.00139461 0.0015695 -0.000466595 -0.00139458 0.00156941 -0.000915767 -0.00108779 0.00049517
          -0.000765596 -0.000731128 -0.00021908 -0.000495128 -0.00049509 -0.000357878 -0.000218175 -0.00037888 -0.000274755 0 -0.000344816 -0.000218018