<?xml version="1.0"?>
<VTKFile type="UnstructuredGrid" version="0.1" byte_order="LittleEndian">
  <UnstructuredGrid>
    <Piece NumberOfCells="448" NumberOfPoints="261">
      <CellData Scalars="ReservoirCell">
        <DataArray type="Float32" Name="ReservoirCell" NumberOfComponents="1" format="ascii">
          2117 2117 2117 1996 1996 1996 1995 1995 2117 2117 1996 1996
          1996 1996 1996 1996 1996 1995 2117 2117 1996 1996 1996 1996
          1996 1996 1996 1996 1996 1996 1875 2117 2117 1996 1996 1996
          1996 1996 1996 1996 1996 1996 1996 1875 1875 1875 1875 1875
          2117 2117 1996 1996 1996 1996 1996 1996 1996 1996 1996 1996
          1875 1875 1875 1875 1875 1875 1875 1875 1875 2117 2117 1996
          1996 1996 1996 1996 1996 1996 1996 1996 1996 1875 1875 1875
          1875 1875 1875 1875 1875 1875 1875 1754 1754 1754 2117 2117
          1996 1996 1996 1996 1996 1996 1996 1996 1996 1996 1875 1875
          1875 1875 1875 1875 1875 1875 1875 1875 1754 1754 1754 1754
          1754 1754 1754 2117 2117 1996 1996 1996 1996 1996 1996 1996
          1996 1996 1996 1875 1875 1875 1875 1875 1875 1875 1875 1875
          1875 1754 1754 1754 1754 1754 1754 1754 1754 1754 1754 1633
          2117 2117 1996 1996 1996 1996 1996 1996 1996 1996 1996 1996
          1875 1875 1875 1875 1875 1875 1875 1875 1875 1875 1754 1754
          1754 1754 1754 1754 1754 1754 1754 1754 1633 1633 2117 2117
          1996 1996 1996 1996 1996 1996 1996 1996 1996 1996 1875 1875
          1875 1875 1875 1875 1875 1875 1875 1875 1754 1754 1754 1754
          1754 1754 1754 1754 1754 1754 1633 1633 2117 2117 1996 1996
          1996 1996 1996 1996 1996 1996 1996 1996 1875 1875 1875 1875
          1875 1875 1875 1875 1875 1875 1754 1754 1754 1754 1754 1754
          1754 1754 1754 1754 1633 1633 2117 2117 1996 1996 1996 1996
          1996 1996 1996 1996 1996 1996 1875 1875 1875 1875 1875 1875
          1875 1875 1875 1875 1754 1754 1754 1754 1754 1754 1754 1754
          1754 1754 1633 1633 2117 1996 1996 1996 1996 1996 1996 1996
          1996 1996 1996 1875 1875 1875 1875 1875 1875 1875 1875 1875
          1875 1754 1754 1754 1754 1754 1754 1754 1754 1754 1754 1633
          1633 1997 1996 1996 1996 1996 1996 1996 1996 1875 1875 1875
          1875 1875 1875 1875 1875 1875 1875 1754 1754 1754 1754 1754
          1754 1754 1754 1754 1754 1633 1633 1997 1997 1996 1996 1996
          1875 1875 1875 1875 1875 1875 1875 1875 1875 1875 1754 1754
          1754 1754 1754 1754 1754 1754 1754 1754 1633 1633 1875 1875
          1875 1875 1875 1875 1875 1875 1875 1754 1754 1754 1754 1754
          1754 1754 1754 1754 1754 1633 1633 1875 1875 1875 1875 1875
          1754 1754 1754 1754 1754 1754 1754 1754 1754 1754 1633 1633
          1875 1754 1754 1754 1754 1754 1754 1754 1754 1754 1754 1633
          1633 1754 1754 1754 1754 1754 1754 1754 1633 1633 1754 1754
          1754 1633 1633 1633
        </DataArray>
        <DataArray type="Float32" Name="ReservoirPerm" NumberOfComponents="1" format="ascii">
          9.86923e-13 9.86923e-13 9.86923e-13 9.86923e-13 9.86923e-13 9.86923e-13 9.86923e-13 9.86923e-13 9.86923e-13 9.86923e-13 9.86923e-13 9.86923e-13
          9.86923e-13 9.86923e-13 9.86923e-13 9.86923e-13 9.86923e-13 9.86923e-13 9.86923e-13 9.86923e-13 9.86923e-13 9.86923e-13 9.86923e-13 9.86923e-13
          9.86923e-13 9.86923e-13 9.86923e-13 9.86923e-13 9.86923e-13 9.86923e-13 9.86923e-13 9.86923e-13 9.86923e-13 9.86923e-13 9.86923e-13 9.86923e-13
          9.86923e-13 9.86923e-13 9.86923e-13 9.86923e-13 9.86923e-13 9.86923e-13 9.86923e-13 9.86923e-13 9.86923e-13 9.86923e-13 9.86923e-13 9.86923e-13
          9.86923e-13 9.86923e-13 9.86923e-13 9.86923e-13 9.86923e-13 9.86923e-13 9.86923e-13 9.86923e-13 9.86923e-13 9.86923e-13 9.86923e-13 9.86923e-13
          9.86923e-13 9.86923e-13 9.86923e-13 9.86923e-13 9.86923e-13 9.86923e-13 9.86923e-13 9.86923e-13 9.86923e-13 9.86923e-13 9.86923e-13 9.86923e-13
          9.86923e-13 9.86923e-13 9.86923e-13 9.86923e-13 9.86923e-13 9.86923e-13 9.86923e-13 9.86923e-13 9.86923e-13 9.86923e-13 9.86923e-13 9.86923e-13
          9.86923e-13 9.86923e-13 9.86923e-13 9.86923e-13 9.86923e-13 9.86923e-13 9.86923e-13 9.86923e-13 9.86923e-13 9.86923e-13 9.86923e-13 9.86923e-13
          9.86923e-13 9.86923e-13 9.86923e-13 9.86923e-13 9.86923e-13 9.86923e-13 9.86923e-13 9.86923e-13 9.86923e-13 9.86923e-13 9.86923e-13 9.86923e-13
          9.86923e-13 9.86923e-13 9.86923e-13 9.86923e-13 9.86923e-13 9.86923e-13 9.86923e-13 9.86923e-13 9.86923e-13 9.86923e-13 9.86923e-13 9.86923e-13
          9.86923e-13 9.86923e-13 9.86923e-13 9.86923e-13 9.86923e-13 9.86923e-13 9.86923e-13 9.86923e-13 9.86923e-13 9.86923e-13 9.86923e-13 9.86923e-13
          9.86923e-13 9.86923e-13 9.86923e-13 9.86923e-13 9.86923e-13 9.86923e-13 9.86923e-13 9.86923e-13 9.86923e-13 9.86923e-13 9.86923e-13 9.86923e-13
          9.86923e-13 9.86923e-13 9.86923e-13 9.86923e-13 9.86923e-13 9.86923e-13 9.86923e-13 9.86923e-13 9.86923e-13 9.86923e-13 9.86923e-13 9.86923e-13
          9.86923e-13 9.86923e-13 9.86923e-13 9.86923e-13 9.86923e-13 9.86923e-13 9.86923e-13 9.86923e-13 9.86923e-13 9.86923e-13 9.86923e-13 9.86923e-13
          9.86923e-13 9.86923e-13 9.86923e-13 9.86923e-13 9.86923e-13 9.86923e-13 9.86923e-13 9.86923e-13 9.86923e-13 9.86923e-13 9.86923e-13 9.86923e-13
          9.86923e-13 9.86923e-13 9.86923e-13 9.86923e-13 9.86923e-13 9.86923e-13 9.86923e-13 9.86923e-13 9.86923e-13 9.86923e-13 9.86923e-13 9.86923e-13
          9.86923e-13 9.86923e-13 9.86923e-13 9.86923e-13 9.86923e-13 9.86923e-13 9.86923e-13 9.86923e-13 9.86923e-13 9.86923e-13 9.86923e-13 9.86923e-13
          9.86923e-13 9.86923e-13 9.86923e-13 9.86923e-13 9.86923e-13 9.86923e-13 9.86923e-13 9.86923e-13 9.86923e-13 9.86923e-13 9.86923e-13 9.86923e-13
          9.86923e-13 9.86923e-13 9.86923e-13 9.86923e-13 9.86923e-13 9.86923e-13 9.86923e-13 9.86923e-13 9.86923e-13 9.86923e-13 9.86923e-13 9.86923e-13
          9.86923e-13 9.86923e-13 9.86923e-13 9.86923e-13 9.86923e-13 9.86923e-13 9.86923e-13 9.86923e-13 9.86923e-13 9.86923e-13 9.86923e-13 9.86923e-13
          9.86923e-13 9.86923e-13 9.86923e-13 9.86923e-13 9.86923e-13 9.86923e-13 9.86923e-13 9.86923e-13 9.86923e-13 9.86923e-13 9.86923e-13 9.86923e-13
          9.86923e-13 9.86923e-13 9.86923e-13 9.86923e-13 9.86923e-13 9.86923e-13 9.86923e-13 9.86923e-13 9.86923e-13 9.86923e-13 9.86923e-13 9.86923e-13
          9.86923e-13 9.86923e-13 9.86923e-13 9.86923e-13 9.86923e-13 9.86923e-13 9.86923e-13 9.86923e-13 9.86923e-13 9.86923e-13 9.86923e-13 9.86923e-13
          9.86923e-13 9.86923e-13 9.86923e-13 9.86923e-13 9.86923e-13 9.86923e-13 9.86923e-13 9.86923e-13 9.86923e-13 9.86923e-13 9.86923e-13 9.86923e-13
          9.86923e-13 9.86923e-13 9.86923e-13 9.86923e-13 9.86923e-13 9.86923e-13 9.86923e-13 9.86923e-13 9.86923e-13 9.86923e-13 9.86923e-13 9.86923e-13
          9.86923e-13 9.86923e-13 9.86923e-13 9.86923e-13 9.86923e-13 9.86923e-13 9.86923e-13 9.86923e-13 9.86923e-13 9.86923e-13 9.86923e-13 9.86923e-13
          9.86923e-13 9.86923e-13 9.86923e-13 9.86923e-13 9.86923e-13 9.86923e-13 9.86923e-13 9.86923e-13 9.86923e-13 9.86923e-13 9.86923e-13 9.86923e-13
          9.86923e-13 9.86923e-13 9.86923e-13 9.86923e-13 9.86923e-13 9.86923e-13 9.86923e-13 9.86923e-13 9.86923e-13 9.86923e-13 9.86923e-13 9.86923e-13
          9.86923e-13 9.86923e-13 9.86923e-13 9.86923e-13 9.86923e-13 9.86923e-13 9.86923e-13 9.86923e-13 9.86923e-13 9.86923e-13 9.86923e-13 9.86923e-13
          9.86923e-13 9.86923e-13 9.86923e-13 9.86923e-13 9.86923e-13 9.86923e-13 9.86923e-13 9.86923e-13 9.86923e-13 9.86923e-13 9.86923e-13 9.86923e-13
          9.86923e-13 9.86923e-13 9.86923e-13 9.86923e-13 9.86923e-13 9.86923e-13 9.86923e-13 9.86923e-13 9.86923e-13 9.86923e-13 9.86923e-13 9.86923e-13
          9.86923e-13 9.86923e-13 9.86923e-13 9.86923e-13 9.86923e-13 9.86923e-13 9.86923e-13 9.86923e-13 9.86923e-13 9.86923e-13 9.86923e-13 9.86923e-13
          9.86923e-13 9.86923e-13 9.86923e-13 9.86923e-13 9.86923e-13 9.86923e-13 9.86923e-13 9.86923e-13 9.86923e-13 9.86923e-13 9.86923e-13 9.86923e-13
          9.86923e-13 9.86923e-13 9.86923e-13 9.86923e-13 9.86923e-13 9.86923e-13 9.86923e-13 9.86923e-13 9.86923e-13 9.86923e-13 9.86923e-13 9.86923e-13
          9.86923e-13 9.86923e-13 9.86923e-13 9.86923e-13 9.86923e-13 9.86923e-13 9.86923e-13 9.86923e-13 9.86923e-13 9.86923e-13 9.86923e-13 9.86923e-13
          9.86923e-13 9.86923e-13 9.86923e-13 9.86923e-13 9.86923e-13 9.86923e-13 9.86923e-13 9.86923e-13 9.86923e-13 9.86923e-13 9.86923e-13 9.86923e-13
          9.86923e-13 9.86923e-13 9.86923e-13 9.86923e-13 9.86923e-13 9.86923e-13 9.86923e-13 9.86923e-13 9.86923e-13 9.86923e-13 9.86923e-13 9.86923e-13
          9.86923e-13 9.86923e-13 9.86923e-13 9.86923e-13
        </DataArray>
        <DataArray type="Float32" Name="ReservoirDist" NumberOfComponents="1" format="ascii">
          45.25 45.25 45.25 45.25 45.25 45.25 45.25 45.25 45.25 45.25 45.25 45.25
          45.25 45.25 45.25 45.25 45.25 45.25 45.25 45.25 45.25 45.25 45.25 45.25
          45.25 45.25 45.25 45.25 45.25 45.25 45.25 45.25 45.25 45.25 45.25 45.25
          45.25 45.25 45.25 45.25 45.25 45.25 45.25 45.25 45.25 45.25 45.25 45.25
          45.25 45.25 45.25 45.25 45.25 45.25 45.25 45.25 45.25 45.25 45.25 45.25
          45.25 45.25 45.25 45.25 45.25 45.25 45.25 45.25 45.25 45.25 45.25 45.25
          45.25 45.25 45.25 45.25 45.25 45.25 45.25 45.25 45.25 45.25 45.25 45.25
          45.25 45.25 45.25 45.25 45.25 45.25 45.25 45.25 45.25 45.25 45.25 45.25
          45.25 45.25 45.25 45.25 45.25 45.25 45.25 45.25 45.25 45.25 45.25 45.25
          45.25 45.25 45.25 45.25 45.25 45.25 45.25 45.25 45.25 45.25 45.25 45.25
          45.25 45.25 45.25 45.25 45.25 45.25 45.25 45.25 45.25 45.25 45.25 45.25
          45.25 45.25 45.25 45.25 45.25 45.25 45.25 45.25 45.25 45.25 45.25 45.25
          45.25 45.25 45.25 45.25 45.25 45.25 45.25 45.25 45.25 45.25 45.25 45.25
          45.25 45.25 45.25 45.25 45.25 45.25 45.25 45.25 45.25 45.25 45.25 45.25
          45.25 45.25 45.25 45.25 45.25 45.25 45.25 45.25 45.25 45.25 45.25 45.25
          45.25 45.25 45.25 45.25 45.25 45.25 45.25 45.25 45.25 45.25 45.25 45.25
          45.25 45.25 45.25 45.25 45.25 45.25 45.25 45.25 45.25 45.25 45.25 45.25
          45.25 45.25 45.25 45.25 45.25 45.25 45.25 45.25 45.25 45.25 45.25 45.25
          45.25 45.25 45.25 45.25 45.25 45.25 45.25 45.25 45.25 45.25 45.25 45.25
          45.25 45.25 45.25 45.25 45.25 45.25 45.25 45.25 45.25 45.25 45.25 45.25
          45.25 45.25 45.25 45.25 45.25 45.25 45.25 45.25 45.25 45.25 45.25 45.25
          45.25 45.25 45.25 45.25 45.25 45.25 45.25 45.25 45.25 45.25 45.25 45.25
          45.25 45.25 45.25 45.25 45.25 45.25 45.25 45.25 45.25 45.25 45.25 45.25
          45.25 45.25 45.25 45.25 45.25 45.25 45.25 45.25 45.25 45.25 45.25 45.25
          45.25 45.25 45.25 45.25 45.25 45.25 45.25 45.25 45.25 45.25 45.25 45.25
          45.25 45.25 45.25 45.25 45.25 45.25 45.25 45.25 45.25 45.25 45.25 45.25
          45.25 45.25 45.25 45.25 45.25 45.25 45.25 45.25 45.25 45.25 45.25 45.25
          45.25 45.25 45.25 45.25 45.25 45.25 45.25 45.25 45.25 45.25 45.25 45.25
          45.25 45.25 45.25 45.25 45.25 45.25 45.25 45.25 45.25 45.25 45.25 45.25
          45.25 45.25 45.25 45.25 45.25 45.25 45.25 45.25 45.25 45.25 45.25 45.25
          45.25 45.25 45.25 45.25 45.25 45.25 45.25 45.25 45.25 45.25 45.25 45.25
          45.25 45.25 45.25 45.25 45.25 45.25 45.25 45.25 45.25 45.25 45.25 45.25
          45.25 45.25 45.25 45.25 45.25 45.25 45.25 45.25 45.25 45.25 45.25 45.25
          45.25 45.25 45.25 45.25 45.25 45.25 45.25 45.25 45.25 45.25 45.25 45.25
          45.25 45.25 45.25 45.25 45.25 45.25 45.25 45.25 45.25 45.25 45.25 45.25
          45.25 45.25 45.25 45.25 45.25 45.25 45.25 45.25 45.25 45.25 45.25 45.25
          45.25 45.25 45.25 45.25 45.25 45.25 45.25 45.25 45.25 45.25 45.25 45.25
          45.25 45.25 45.25 45.25
        </DataArray>
        <DataArray type="Float32" Name="ReservoirCStres" NumberOfComponents="1" format="ascii">
          5.55e+06 5.55e+06 5.55e+06 5.55e+06 5.55e+06 5.55e+06 5.55e+06 5.55e+06 5.55e+06 5.55e+06 5.55e+06 5.55e+06
          5.55e+06 5.55e+06 5.55e+06 5.55e+06 5.55e+06 5.55e+06 5.55e+06 5.55e+06 5.55e+06 5.55e+06 5.55e+06 5.55e+06
          5.55e+06 5.55e+06 5.55e+06 5.55e+06 5.55e+06 5.55e+06 5.55e+06 5.55e+06 5.55e+06 5.55e+06 5.55e+06 5.55e+06
          5.55e+06 5.55e+06 5.55e+06 5.55e+06 5.55e+06 5.55e+06 5.55e+06 5.55e+06 5.55e+06 5.55e+06 5.55e+06 5.55e+06
          5.55e+06 5.55e+06 5.55e+06 5.55e+06 5.55e+06 5.55e+06 5.55e+06 5.55e+06 5.55e+06 5.55e+06 5.55e+06 5.55e+06
          5.55e+06 5.55e+06 5.55e+06 5.55e+06 5.55e+06 5.55e+06 5.55e+06 5.55e+06 5.55e+06 5.55e+06 5.55e+06 5.55e+06
          5.55e+06 5.55e+06 5.55e+06 5.55e+06 5.55e+06 5.55e+06 5.55e+06 5.55e+06 5.55e+06 5.55e+06 5.55e+06 5.55e+06
          5.55e+06 5.55e+06 5.55e+06 5.55e+06 5.55e+06 5.55e+06 5.55e+06 5.55e+06 5.55e+06 5.55e+06 5.55e+06 5.55e+06
          5.55e+06 5.55e+06 5.55e+06 5.55e+06 5.55e+06 5.55e+06 5.55e+06 5.55e+06 5.55e+06 5.55e+06 5.55e+06 5.55e+06
          5.55e+06 5.55e+06 5.55e+06 5.55e+06 5.55e+06 5.55e+06 5.55e+06 5.55e+06 5.55e+06 5.55e+06 5.55e+06 5.55e+06
          5.55e+06 5.55e+06 5.55e+06 5.55e+06 5.55e+06 5.55e+06 5.55e+06 5.55e+06 5.55e+06 5.55e+06 5.55e+06 5.55e+06
          5.55e+06 5.55e+06 5.55e+06 5.55e+06 5.55e+06 5.55e+06 5.55e+06 5.55e+06 5.55e+06 5.55e+06 5.55e+06 5.55e+06
          5.55e+06 5.55e+06 5.55e+06 5.55e+06 5.55e+06 5.55e+06 5.55e+06 5.55e+06 5.55e+06 5.55e+06 5.55e+06 5.55e+06
          5.55e+06 5.55e+06 5.55e+06 5.55e+06 5.55e+06 5.55e+06 5.55e+06 5.55e+06 5.55e+06 5.55e+06 5.55e+06 5.55e+06
          5.55e+06 5.55e+06 5.55e+06 5.55e+06 5.55e+06 5.55e+06 5.55e+06 5.55e+06 5.55e+06 5.55e+06 5.55e+06 5.55e+06
          5.55e+06 5.55e+06 5.55e+06 5.55e+06 5.55e+06 5.55e+06 5.55e+06 5.55e+06 5.55e+06 5.55e+06 5.55e+06 5.55e+06
          5.55e+06 5.55e+06 5.55e+06 5.55e+06 5.55e+06 5.55e+06 5.55e+06 5.55e+06 5.55e+06 5.55e+06 5.55e+06 5.55e+06
          5.55e+06 5.55e+06 5.55e+06 5.55e+06 5.55e+06 5.55e+06 5.55e+06 5.55e+06 5.55e+06 5.55e+06 5.55e+06 5.55e+06
          5.55e+06 5.55e+06 5.55e+06 5.55e+06 5.55e+06 5.55e+06 5.55e+06 5.55e+06 5.55e+06 5.55e+06 5.55e+06 5.55e+06
          5.55e+06 5.55e+06 5.55e+06 5.55e+06 5.55e+06 5.55e+06 5.55e+06 5.55e+06 5.55e+06 5.55e+06 5.55e+06 5.55e+06
          5.55e+06 5.55e+06 5.55e+06 5.55e+06 5.55e+06 5.55e+06 5.55e+06 5.55e+06 5.55e+06 5.55e+06 5.55e+06 5.55e+06
          5.55e+06 5.55e+06 5.55e+06 5.55e+06 5.55e+06 5.55e+06 5.55e+06 5.55e+06 5.55e+06 5.55e+06 5.55e+06 5.55e+06
          5.55e+06 5.55e+06 5.55e+06 5.55e+06 5.55e+06 5.55e+06 5.55e+06 5.55e+06 5.55e+06 5.55e+06 5.55e+06 5.55e+06
          5.55e+06 5.55e+06 5.55e+06 5.55e+06 5.55e+06 5.55e+06 5.55e+06 5.55e+06 5.55e+06 5.55e+06 5.55e+06 5.55e+06
          5.55e+06 5.55e+06 5.55e+06 5.55e+06 5.55e+06 5.55e+06 5.55e+06 5.55e+06 5.55e+06 5.55e+06 5.55e+06 5.55e+06
          5.55e+06 5.55e+06 5.55e+06 5.55e+06 5.55e+06 5.55e+06 5.55e+06 5.55e+06 5.55e+06 5.55e+06 5.55e+06 5.55e+06
          5.55e+06 5.55e+06 5.55e+06 5.55e+06 5.55e+06 5.55e+06 5.55e+06 5.55e+06 5.55e+06 5.55e+06 5.55e+06 5.55e+06
          5.55e+06 5.55e+06 5.55e+06 5.55e+06 5.55e+06 5.55e+06 5.55e+06 5.55e+06 5.55e+06 5.55e+06 5.55e+06 5.55e+06
          5.55e+06 5.55e+06 5.55e+06 5.55e+06 5.55e+06 5.55e+06 5.55e+06 5.55e+06 5.55e+06 5.55e+06 5.55e+06 5.55e+06
          5.55e+06 5.55e+06 5.55e+06 5.55e+06 5.55e+06 5.55e+06 5.55e+06 5.55e+06 5.55e+06 5.55e+06 5.55e+06 5.55e+06
          5.55e+06 5.55e+06 5.55e+06 5.55e+06 5.55e+06 5.55e+06 5.55e+06 5.55e+06 5.55e+06 5.55e+06 5.55e+06 5.55e+06
          5.55e+06 5.55e+06 5.55e+06 5.55e+06 5.55e+06 5.55e+06 5.55e+06 5.55e+06 5.55e+06 5.55e+06 5.55e+06 5.55e+06
          5.55e+06 5.55e+06 5.55e+06 5.55e+06 5.55e+06 5.55e+06 5.55e+06 5.55e+06 5.55e+06 5.55e+06 5.55e+06 5.55e+06
          5.55e+06 5.55e+06 5.55e+06 5.55e+06 5.55e+06 5.55e+06 5.55e+06 5.55e+06 5.55e+06 5.55e+06 5.55e+06 5.55e+06
          5.55e+06 5.55e+06 5.55e+06 5.55e+06 5.55e+06 5.55e+06 5.55e+06 5.55e+06 5.55e+06 5.55e+06 5.55e+06 5.55e+06
          5.55e+06 5.55e+06 5.55e+06 5.55e+06 5.55e+06 5.55e+06 5.55e+06 5.55e+06 5.55e+06 5.55e+06 5.55e+06 5.55e+06
          5.55e+06 5.55e+06 5.55e+06 5.55e+06 5.55e+06 5.55e+06 5.55e+06 5.55e+06 5.55e+06 5.55e+06 5.55e+06 5.55e+06
          5.55e+06 5.55e+06 5.55e+06 5.55e+06
        </DataArray>
        <DataArray type="Float32" Name="FracturePressure" NumberOfComponents="1" format="ascii">
          2.32685e+07 2.32704e+07 2.32704e+07 2.32312e+07 2.32312e+07 2.31919e+07 2.2311e+07 2.20267e+07 2.32704e+07 2.32704e+07 2.32312e+07 2.32312e+07
          2.3192e+07 2.3192e+07 2.31527e+07 2.31527e+07 2.31135e+07 2.22326e+07 2.32704e+07 2.32704e+07 2.32312e+07 2.32312e+07 2.3192e+07 2.3192e+07
          2.31527e+07 2.31527e+07 2.31135e+07 2.31135e+07 2.30743e+07 2.30743e+07 2.3035e+07 2.32704e+07 2.32704e+07 2.32312e+07 2.32312e+07 2.3192e+07
          2.3192e+07 2.31527e+07 2.31527e+07 2.31135e+07 2.31135e+07 2.30743e+07 2.30743e+07 2.3035e+07 2.3035e+07 2.29958e+07 2.29958e+07 2.29566e+07
          2.32704e+07 2.32704e+07 2.32312e+07 2.32312e+07 2.3192e+07 2.3192e+07 2.31527e+07 2.31527e+07 2.31135e+07 2.31135e+07 2.30743e+07 2.30743e+07
          2.3035e+07 2.3035e+07 2.29958e+07 2.29958e+07 2.29566e+07 2.29566e+07 2.29174e+07 2.29174e+07 2.28781e+07 2.32704e+07 2.32704e+07 2.32312e+07
          2.32312e+07 2.3192e+07 2.3192e+07 2.31527e+07 2.31527e+07 2.31135e+07 2.31135e+07 2.30743e+07 2.30743e+07 2.3035e+07 2.3035e+07 2.29958e+07
          2.29958e+07 2.29566e+07 2.29566e+07 2.29174e+07 2.29174e+07 2.28781e+07 2.28781e+07 2.28389e+07 2.28389e+07 2.27997e+07 2.32704e+07 2.32704e+07
          2.32312e+07 2.32312e+07 2.3192e+07 2.3192e+07 2.31527e+07 2.31527e+07 2.31135e+07 2.31135e+07 2.30743e+07 2.30743e+07 2.3035e+07 2.3035e+07
          2.29958e+07 2.29958e+07 2.29566e+07 2.29566e+07 2.29174e+07 2.29174e+07 2.28781e+07 2.28781e+07 2.28389e+07 2.28389e+07 2.27997e+07 2.27997e+07
          2.27605e+07 2.27605e+07 2.27212e+07 2.32704e+07 2.32704e+07 2.32312e+07 2.32312e+07 2.3192e+07 2.3192e+07 2.31527e+07 2.31527e+07 2.31135e+07
          2.31135e+07 2.30743e+07 2.30743e+07 2.3035e+07 2.3035e+07 2.29958e+07 2.29958e+07 2.29566e+07 2.29566e+07 2.29174e+07 2.29174e+07 2.28781e+07
          2.28781e+07 2.28389e+07 2.28389e+07 2.27997e+07 2.27997e+07 2.27605e+07 2.27605e+07 2.27212e+07 2.27212e+07 2.2682e+07 2.2682e+07 2.26425e+07
          2.32704e+07 2.32704e+07 2.32312e+07 2.32312e+07 2.3192e+07 2.3192e+07 2.31527e+07 2.31527e+07 2.31135e+07 2.31135e+07 2.30743e+07 2.30743e+07
          2.3035e+07 2.3035e+07 2.29958e+07 2.29958e+07 2.29566e+07 2.29566e+07 2.29174e+07 2.29174e+07 2.28781e+07 2.28781e+07 2.28389e+07 2.28389e+07
          2.27997e+07 2.27997e+07 2.27605e+07 2.27605e+07 2.27212e+07 2.27212e+07 2.2682e+07 2.2682e+07 2.26428e+07 2.26428e+07 2.32704e+07 2.32704e+07
          2.32312e+07 2.32312e+07 2.3192e+07 2.3192e+07 2.31527e+07 2.31527e+07 2.31135e+07 2.31135e+07 2.30743e+07 2.30743e+07 2.3035e+07 2.3035e+07
          2.29958e+07 2.29958e+07 2.29566e+07 2.29566e+07 2.29174e+07 2.29174e+07 2.28781e+07 2.28781e+07 2.28389e+07 2.28389e+07 2.27997e+07 2.27997e+07
          2.27605e+07 2.27605e+07 2.27212e+07 2.27212e+07 2.2682e+07 2.2682e+07 2.26428e+07 2.26428e+07 2.32704e+07 2.32704e+07 2.32312e+07 2.32312e+07
          2.3192e+07 2.3192e+07 2.31527e+07 2.31527e+07 2.31135e+07 2.31135e+07 2.30743e+07 2.30743e+07 2.3035e+07 2.3035e+07 2.29958e+07 2.29958e+07
          2.29566e+07 2.29566e+07 2.29174e+07 2.29174e+07 2.28781e+07 2.28781e+07 2.28389e+07 2.28389e+07 2.27997e+07 2.27997e+07 2.27605e+07 2.27605e+07
          2.27212e+07 2.27212e+07 2.2682e+07 2.2682e+07 2.26428e+07 2.26428e+07 2.32704e+07 2.32704e+07 2.32312e+07 2.32312e+07 2.3192e+07 2.3192e+07
          2.31527e+07 2.31527e+07 2.31135e+07 2.31135e+07 2.30743e+07 2.30743e+07 2.3035e+07 2.3035e+07 2.29958e+07 2.29958e+07 2.29566e+07 2.29566e+07
          2.29174e+07 2.29174e+07 2.28781e+07 2.28781e+07 2.28389e+07 2.28389e+07 2.27997e+07 2.27997e+07 2.27605e+07 2.27605e+07 2.27212e+07 2.27212e+07
          2.2682e+07 2.2682e+07 2.26428e+07 2.26428e+07 2.32685e+07 2.32312e+07 2.32312e+07 2.3192e+07 2.3192e+07 2.31527e+07 2.31527e+07 2.31135e+07
          2.31135e+07 2.30743e+07 2.30743e+07 2.3035e+07 2.3035e+07 2.29958e+07 2.29958e+07 2.29566e+07 2.29566e+07 2.29174e+07 2.29174e+07 2.28781e+07
          2.28781e+07 2.28389e+07 2.28389e+07 2.27997e+07 2.27997e+07 2.27605e+07 2.27605e+07 2.27212e+07 2.27212e+07 2.2682e+07 2.2682e+07 2.26428e+07
          2.26428e+07 2.2311e+07 2.31919e+07 2.31527e+07 2.31527e+07 2.31135e+07 2.31135e+07 2.30743e+07 2.30743e+07 2.3035e+07 2.3035e+07 2.29958e+07
          2.29958e+07 2.29566e+07 2.29566e+07 2.29174e+07 2.29174e+07 2.28781e+07 2.28781e+07 2.28389e+07 2.28389e+07 2.27997e+07 2.27997e+07 2.27605e+07
          2.27605e+07 2.27212e+07 2.27212e+07 2.2682e+07 2.2682e+07 2.26428e+07 2.26428e+07 2.20267e+07 2.22326e+07 2.31135e+07 2.30743e+07 2.30743e+07
          2.3035e+07 2.3035e+07 2.29958e+07 2.29958e+07 2.29566e+07 2.29566e+07 2.29174e+07 2.29174e+07 2.28781e+07 2.28781e+07 2.28389e+07 2.28389e+07
          2.27997e+07 2.27997e+07 2.27605e+07 2.27605e+07 2.27212e+07 2.27212e+07 2.2682e+07 2.2682e+07 2.26428e+07 2.26428e+07 2.3035e+07 2.29958e+07
          2.29958e+07 2.29566e+07 2.29566e+07 2.29174e+07 2.29174e+07 2.28781e+07 2.28781e+07 2.28389e+07 2.28389e+07 2.27997e+07 2.27997e+07 2.27605e+07
          2.27605e+07 2.27212e+07 2.27212e+07 2.2682e+07 2.2682e+07 2.26428e+07 2.26428e+07 2.29566e+07 2.29174e+07 2.29174e+07 2.28781e+07 2.28781e+07
          2.28389e+07 2.28389e+07 2.27997e+07 2.27997e+07 2.27605e+07 2.27605e+07 2.27212e+07 2.27212e+07 2.2682e+07 2.2682e+07 2.26428e+07 2.26428e+07
          2.28781e+07 2.28389e+07 2.28389e+07 2.27997e+07 2.27997e+07 2.27605e+07 2.27605e+07 2.27212e+07 2.27212e+07 2.2682e+07 2.2682e+07 2.26428e+07
          2.26428e+07 2.27997e+07 2.27605e+07 2.27605e+07 2.27212e+07 2.27212e+07 2.2682e+07 2.2682e+07 2.26428e+07 2.26428e+07 2.27212e+07 2.2682e+07
          2.2682e+07 2.26428e+07 2.26428e+07 2.26425e+07
        </DataArray>
        <DataArray type="Float32" Name="FractureHead" NumberOfComponents="1" format="ascii">
          -116205 -114293 -114298 -114284 -114286 -114285 -995181 -1.24028e+06 -114285 -114286 -114283 -114283
          -114283 -114283 -114283 -114283 -114283 -995180 -114283 -114284 -114282 -114282 -114282 -114282
          -114282 -114282 -114282 -114282 -114282 -114283 -114282 -114282 -114282 -114281 -114281 -114281
          -114281 -114281 -114282 -114282 -114282 -114282 -114282 -114282 -114282 -114282 -114282 -114282
          -114281 -114281 -114280 -114280 -114280 -114281 -114281 -114281 -114281 -114281 -114281 -114281
          -114281 -114282 -114282 -114282 -114282 -114282 -114282 -114282 -114282 -114280 -114281 -114280
          -114280 -114280 -114280 -114280 -114280 -114280 -114280 -114281 -114281 -114281 -114281 -114281
          -114281 -114281 -114282 -114282 -114282 -114282 -114282 -114282 -114282 -114283 -114281 -114280
          -114279 -114279 -114279 -114279 -114279 -114279 -114279 -114280 -114280 -114280 -114280 -114280
          -114280 -114281 -114281 -114281 -114281 -114281 -114281 -114282 -114282 -114282 -114282 -114282
          -114283 -114283 -114284 -114281 -114281 -114280 -114280 -114279 -114279 -114279 -114279 -114279
          -114279 -114279 -114279 -114279 -114280 -114280 -114280 -114280 -114280 -114280 -114281 -114281
          -114281 -114281 -114281 -114282 -114282 -114282 -114282 -114283 -114283 -114284 -114285 -114548
          -114282 -114282 -114280 -114280 -114280 -114280 -114279 -114279 -114279 -114279 -114278 -114278
          -114278 -114279 -114279 -114279 -114279 -114279 -114280 -114280 -114280 -114280 -114281 -114281
          -114281 -114281 -114281 -114282 -114282 -114282 -114283 -114283 -114289 -114291 -114284 -114283
          -114281 -114281 -114281 -114280 -114280 -114280 -114280 -114279 -114279 -114279 -114279 -114278
          -114278 -114278 -114278 -114278 -114279 -114279 -114279 -114280 -114280 -114280 -114280 -114280
          -114281 -114281 -114281 -114281 -114282 -114282 -114284 -114285 -114286 -114285 -114282 -114282
          -114281 -114281 -114281 -114281 -114280 -114280 -114280 -114280 -114280 -114279 -114279 -114279
          -114278 -114278 -114278 -114278 -114278 -114279 -114279 -114279 -114279 -114280 -114280 -114280
          -114280 -114281 -114281 -114281 -114283 -114283 -114298 -114293 -114283 -114283 -114282 -114282
          -114282 -114281 -114281 -114281 -114281 -114281 -114280 -114280 -114280 -114280 -114279 -114279
          -114279 -114279 -114279 -114278 -114278 -114278 -114279 -114279 -114279 -114279 -114280 -114280
          -114280 -114280 -114282 -114282 -116205 -114286 -114284 -114283 -114283 -114282 -114282 -114282
          -114282 -114281 -114281 -114281 -114281 -114281 -114280 -114280 -114280 -114280 -114280 -114280
          -114279 -114279 -114279 -114279 -114279 -114279 -114279 -114279 -114279 -114279 -114280 -114281
          -114281 -995181 -114285 -114283 -114283 -114282 -114282 -114282 -114282 -114282 -114281 -114281
          -114281 -114281 -114281 -114281 -114280 -114280 -114280 -114280 -114280 -114280 -114279 -114279
          -114279 -114279 -114279 -114279 -114279 -114280 -114280 -1.24028e+06 -995180 -114283 -114283 -114282
          -114282 -114282 -114282 -114282 -114282 -114281 -114281 -114281 -114281 -114281 -114281 -114281
          -114280 -114280 -114280 -114280 -114280 -114280 -114280 -114279 -114280 -114280 -114282 -114282
          -114282 -114282 -114282 -114282 -114282 -114282 -114281 -114281 -114281 -114281 -114281 -114281
          -114281 -114281 -114280 -114280 -114280 -114281 -114281 -114282 -114282 -114282 -114282 -114282
          -114282 -114282 -114282 -114282 -114282 -114281 -114281 -114281 -114281 -114281 -114282 -114282
          -114282 -114282 -114282 -114282 -114282 -114282 -114282 -114282 -114282 -114282 -114282 -114283
          -114283 -114283 -114283 -114283 -114283 -114283 -114283 -114283 -114285 -114284 -114284 -114285
          -114284 -114291 -114289 -114548
        </DataArray>
        <DataArray type="Float32" Name="ReservoirPressure" NumberOfComponents="1" format="ascii">
          2.21931e+07 2.21931e+07 2.21931e+07 2.20975e+07 2.20975e+07 2.20975e+07 2.19097e+07 2.19097e+07 2.21931e+07 2.21931e+07 2.20975e+07 2.20975e+07
          2.20975e+07 2.20975e+07 2.20975e+07 2.20975e+07 2.20975e+07 2.19097e+07 2.21931e+07 2.21931e+07 2.20975e+07 2.20975e+07 2.20975e+07 2.20975e+07
          2.20975e+07 2.20975e+07 2.20975e+07 2.20975e+07 2.20975e+07 2.20975e+07 2.20901e+07 2.21931e+07 2.21931e+07 2.20975e+07 2.20975e+07 2.20975e+07
          2.20975e+07 2.20975e+07 2.20975e+07 2.20975e+07 2.20975e+07 2.20975e+07 2.20975e+07 2.20901e+07 2.20901e+07 2.20901e+07 2.20901e+07 2.20901e+07
          2.21931e+07 2.21931e+07 2.20975e+07 2.20975e+07 2.20975e+07 2.20975e+07 2.20975e+07 2.20975e+07 2.20975e+07 2.20975e+07 2.20975e+07 2.20975e+07
          2.20901e+07 2.20901e+07 2.20901e+07 2.20901e+07 2.20901e+07 2.20901e+07 2.20901e+07 2.20901e+07 2.20901e+07 2.21931e+07 2.21931e+07 2.20975e+07
          2.20975e+07 2.20975e+07 2.20975e+07 2.20975e+07 2.20975e+07 2.20975e+07 2.20975e+07 2.20975e+07 2.20975e+07 2.20901e+07 2.20901e+07 2.20901e+07
          2.20901e+07 2.20901e+07 2.20901e+07 2.20901e+07 2.20901e+07 2.20901e+07 2.20901e+07 2.17016e+07 2.17016e+07 2.17016e+07 2.21931e+07 2.21931e+07
          2.20975e+07 2.20975e+07 2.20975e+07 2.20975e+07 2.20975e+07 2.20975e+07 2.20975e+07 2.20975e+07 2.20975e+07 2.20975e+07 2.20901e+07 2.20901e+07
          2.20901e+07 2.20901e+07 2.20901e+07 2.20901e+07 2.20901e+07 2.20901e+07 2.20901e+07 2.20901e+07 2.17016e+07 2.17016e+07 2.17016e+07 2.17016e+07
          2.17016e+07 2.17016e+07 2.17016e+07 2.21931e+07 2.21931e+07 2.20975e+07 2.20975e+07 2.20975e+07 2.20975e+07 2.20975e+07 2.20975e+07 2.20975e+07
          2.20975e+07 2.20975e+07 2.20975e+07 2.20901e+07 2.20901e+07 2.20901e+07 2.20901e+07 2.20901e+07 2.20901e+07 2.20901e+07 2.20901e+07 2.20901e+07
          2.20901e+07 2.17016e+07 2.17016e+07 2.17016e+07 2.17016e+07 2.17016e+07 2.17016e+07 2.17016e+07 2.17016e+07 2.17016e+07 2.17016e+07 2.14006e+07
          2.21931e+07 2.21931e+07 2.20975e+07 2.20975e+07 2.20975e+07 2.20975e+07 2.20975e+07 2.20975e+07 2.20975e+07 2.20975e+07 2.20975e+07 2.20975e+07
          2.20901e+07 2.20901e+07 2.20901e+07 2.20901e+07 2.20901e+07 2.20901e+07 2.20901e+07 2.20901e+07 2.20901e+07 2.20901e+07 2.17016e+07 2.17016e+07
          2.17016e+07 2.17016e+07 2.17016e+07 2.17016e+07 2.17016e+07 2.17016e+07 2.17016e+07 2.17016e+07 2.14006e+07 2.14006e+07 2.21931e+07 2.21931e+07
          2.20975e+07 2.20975e+07 2.20975e+07 2.20975e+07 2.20975e+07 2.20975e+07 2.20975e+07 2.20975e+07 2.20975e+07 2.20975e+07 2.20901e+07 2.20901e+07
          2.20901e+07 2.20901e+07 2.20901e+07 2.20901e+07 2.20901e+07 2.20901e+07 2.20901e+07 2.20901e+07 2.17016e+07 2.17016e+07 2.17016e+07 2.17016e+07
          2.17016e+07 2.17016e+07 2.17016e+07 2.17016e+07 2.17016e+07 2.17016e+07 2.14006e+07 2.14006e+07 2.21931e+07 2.21931e+07 2.20975e+07 2.20975e+07
          2.20975e+07 2.20975e+07 2.20975e+07 2.20975e+07 2.20975e+07 2.20975e+07 2.20975e+07 2.20975e+07 2.20901e+07 2.20901e+07 2.20901e+07 2.20901e+07
          2.20901e+07 2.20901e+07 2.20901e+07 2.20901e+07 2.20901e+07 2.20901e+07 2.17016e+07 2.17016e+07 2.17016e+07 2.17016e+07 2.17016e+07 2.17016e+07
          2.17016e+07 2.17016e+07 2.17016e+07 2.17016e+07 2.14006e+07 2.14006e+07 2.21931e+07 2.21931e+07 2.20975e+07 2.20975e+07 2.20975e+07 2.20975e+07