<?xml version="1.0"?>
<VTKFile type="UnstructuredGrid" version="0.1" byte_order="LittleEndian">
  <UnstructuredGrid>
    <Piece NumberOfCells="546" NumberOfPoints="307">
      <CellData Scalars="ReservoirCell">
        <DataArray type="Float32" Name="ReservoirCell" NumberOfComponents="1" format="ascii">
          1875 1875 1875 1875 1875 1875 1875 1875 1875 1875 1875 1875
          1875 1875 1875 1875 1875 1875 1875 1875 1875 1875 1875 1875
          1875 1875 1875 1875 1875 1875 1875 1875 1875 1875 1875 1875
          1875 1875 1875 1875 1875 1875 1875 1875 1875 1875 1875 1875
          1875 1875 1875 1875 1875 1875 1875 1875 1875 1875 1875 1875
          1875 1875 1875 1875 1875 1875 1875 1875 1875 1875 1875 1875
          1875 1875 1875 1875 1875 1875 1875 1875 1875 1875 1875 1875
          1875 1875 1875 1875 1875 1875 1875 1875 1875 1875 1875 1875
          1875 1875 1875 1875 1875 1875 1875 1875 1875 1875 1875 1875
          1875 1875 1875 1875 1875 1875 1875 1875 1875 1875 1875 1875
          1875 1875 1875 1875 1875 1875 1875 1875 1875 1875 1875 1875
          1875 1875 1875 1875 1875 1875 1875 1875 1875 1875 1875 1875
          1875 1875 1875 1875 1875 1875 1875 1875 1875 1875 1875 1875
          1875 1875 1875 1875 1875 1875 1875 1875 1875 1875 1875 1875
          1875 1875 1875 1875 1875 1875 1875 1875 1875 1875 1875 1875
          1875 1875 1875 1875 1875 1875 1875 1875 1875 1875 1875 1875
          1875 1875 1875 1875 1875 1875 1875 1875 1875 1875 1875 1875
          1875 1875 1875 1875 1875 1875 1875 1875 1875 1875 1875 1875
          1875 1875 1875 1875 1875 1875 1875 1875 1875 1875 1875 1875
          1875 1875 1875 1875 1875 1875 1875 1875 1875 1875 1875 1875
          1875 1875 1875 1875 1875 1875 1875 1875 1875 1875 1875 1875
          1875 1875 1875 1875 1875 1875 1875 1875 1875 1875 1875 1875
          1875 1875 1875 1875 1875 1875 1875 1875 1875 1875 1875 1875
          1875 1875 1875 1875 1875 1875 1875 1875 1875 1875 1875 1875
          1875 1875 1875 1875 1875 1875 1875 1875 1875 1875 1875 1875
          1875 1875 1875 1875 1875 1875 1875 1875 1875 1875 1875 1875
          1875 1875 1875 1875 1875 1875 1875 1875 1875 1875 1875 1875
          1875 1875 1875 1875 1875 1875 1875 1875 1875 1875 1875 1875
          1875 1875 1875 1875 1875 1875 1875 1875 1875 1875 1875 1875
          1875 1875 1875 1875 1875 1875 1875 1875 1875 1875 1875 1875
          1875 1875 1875 1875 1875 1875 1875 1875 1875 1875 1875 1875
          1875 1875 1875 1875 1875 1875 1875 1875 1875 1875 1875 1875
          1875 1875 1875 1875 1875 1875 1875 1875 1875 1875 1875 1875
          1875 1875 1875 1875 1875 1875 1875 1875 1875 1875 1875 1875
          1875 1875 1875 1875 1875 1875 1875 1875 1875 1875 1875 1875
          1875 1875 1875 1875 1875 1875 1875 1875 1875 1875 1875 1875
          1875 1875 1875 1875 1875 1875 1875 1875 1875 1875 1875 1875
          1875 1875 1875 1875 1875 1875 1875 1875 1875 1875 1875 1875
          1875 1875 1875 1875 1875 1875 1875 1875 1875 1875 1875 1875
          1875 1875 1875 1875 1875 1875 1875 1875 1875 1875 1875 1875
          1875 1875 1875 1875 1875 1875 1875 1875 1875 1875 1875 1875
          1875 1875 1875 1875 1875 1875 1875 1875 1875 1875 1875 1875
          1875 1875 1875 1875 1875 1875 1875 1875 1875 1875 1875 1875
          1875 1875 1875 1875 1875 1875 1875 1875 1875 1875 1875 1875
          1875 1875 1875 1875 1875 1875 1875 1875 1875 1875 1875 1875
          1875 1875 1875 1875 1875 1875
        </DataArray>
        <DataArray type="Float32" Name="ReservoirPerm" NumberOfComponents="1" format="ascii">
          9.86923e-13 9.86923e-13 9.86923e-13 9.86923e-13 9.86923e-13 9.86923e-13 9.86923e-13 9.86923e-13 9.86923e-13 9.86923e-13 9.86923e-13 9.86923e-13
          9.86923e-13 9.86923e-13 9.86923e-13 9.86923e-13 9.86923e-13 9.86923e-13 9.86923e-13 9.86923e-13 9.86923e-13 9.86923e-13 9.86923e-13 9.86923e-13
          9.86923e-13 9.86923e-13 9.86923e-13 9.86923e-13 9.86923e-13 9.86923e-13 9.86923e-13 9.86923e-13 9.86923e-13 9.86923e-13 9.86923e-13 9.86923e-13
          9.86923e-13 9.86923e-13 9.86923e-13 9.86923e-13 9.86923e-13 9.86923e-13 9.86923e-13 9.86923e-13 9.86923e-13 9.86923e-13 9.86923e-13 9.86923e-13
          9.86923e-13 9.86923e-13 9.86923e-13 9.86923e-13 9.86923e-13 9.86923e-13 9.86923e-13 9.86923e-13 9.86923e-13 9.86923e-13 9.86923e-13 9.86923e-13
          9.86923e-13 9.86923e-13 9.86923e-13 9.86923e-13 9.86923e-13 9.86923e-13 9.86923e-13 9.86923e-13 9.86923e-13 9.86923e-13 9.86923e-13 9.86923e-13
          9.86923e-13 9.86923e-13 9.86923e-13 9.86923e-13 9.86923e-13 9.86923e-13 9.86923e-13 9.86923e-13 9.86923e-13 9.86923e-13 9.86923e-13 9.86923e-13
          9.86923e-13 9.86923e-13 9.86923e-13 9.86923e-13 9.86923e-13 9.86923e-13 9.86923e-13 9.86923e-13 9.86923e-13 9.86923e-13 9.86923e-13 9.86923e-13
          9.86923e-13 9.86923e-13 9.86923e-13 9.86923e-13 9.86923e-13 9.86923e-13 9.86923e-13 9.86923e-13 9.86923e-13 9.86923e-13 9.86923e-13 9.86923e-13
          9.86923e-13 9.86923e-13 9.86923e-13 9.86923e-13 9.86923e-13 9.86923e-13 9.86923e-13 9.86923e-13 9.86923e-13 9.86923e-13 9.86923e-13 9.86923e-13
          9.86923e-13 9.86923e-13 9.86923e-13 9.86923e-13 9.86923e-13 9.86923e-13 9.86923e-13 9.86923e-13 9.86923e-13 9.86923e-13 9.86923e-13 9.86923e-13
          9.86923e-13 9.86923e-13 9.86923e-13 9.86923e-13 9.86923e-13 9.86923e-13 9.86923e-13 9.86923e-13 9.86923e-13 9.86923e-13 9.86923e-13 9.86923e-13
          9.86923e-13 9.86923e-13 9.86923e-13 9.86923e-13 9.86923e-13 9.86923e-13 9.86923e-13 9.86923e-13 9.86923e-13 9.86923e-13 9.86923e-13 9.86923e-13
          9.86923e-13 9.86923e-13 9.86923e-13 9.86923e-13 9.86923e-13 9.86923e-13 9.86923e-13 9.86923e-13 9.86923e-13 9.86923e-13 9.86923e-13 9.86923e-13
          9.86923e-13 9.86923e-13 9.86923e-13 9.86923e-13 9.86923e-13 9.86923e-13 9.86923e-13 9.86923e-13 9.86923e-13 9.86923e-13 9.86923e-13 9.86923e-13
          9.86923e-13 9.86923e-13 9.86923e-13 9.86923e-13 9.86923e-13 9.86923e-13 9.86923e-13 9.86923e-13 9.86923e-13 9.86923e-13 9.86923e-13 9.86923e-13
          9.86923e-13 9.86923e-13 9.86923e-13 9.86923e-13 9.86923e-13 9.86923e-13 9.86923e-13 9.86923e-13 9.86923e-13 9.86923e-13 9.86923e-13 9.86923e-13
          9.86923e-13 9.86923e-13 9.86923e-13 9.86923e-13 9.86923e-13 9.86923e-13 9.86923e-13 9.86923e-13 9.86923e-13 9.86923e-13 9.86923e-13 9.86923e-13
          9.86923e-13 9.86923e-13 9.86923e-13 9.86923e-13 9.86923e-13 9.86923e-13 9.86923e-13 9.86923e-13 9.86923e-13 9.86923e-13 9.86923e-13 9.86923e-13
          9.86923e-13 9.86923e-13 9.86923e-13 9.86923e-13 9.86923e-13 9.86923e-13 9.86923e-13 9.86923e-13 9.86923e-13 9.86923e-13 9.86923e-13 9.86923e-13
          9.86923e-13 9.86923e-13 9.86923e-13 9.86923e-13 9.86923e-13 9.86923e-13 9.86923e-13 9.86923e-13 9.86923e-13 9.86923e-13 9.86923e-13 9.86923e-13
          9.86923e-13 9.86923e-13 9.86923e-13 9.86923e-13 9.86923e-13 9.86923e-13 9.86923e-13 9.86923e-13 9.86923e-13 9.86923e-13 9.86923e-13 9.86923e-13
          9.86923e-13 9.86923e-13 9.86923e-13 9.86923e-13 9.86923e-13 9.86923e-13 9.86923e-13 9.86923e-13 9.86923e-13 9.86923e-13 9.86923e-13 9.86923e-13
          9.86923e-13 9.86923e-13 9.86923e-13 9.86923e-13 9.86923e-13 9.86923e-13 9.86923e-13 9.86923e-13 9.86923e-13 9.86923e-13 9.86923e-13 9.86923e-13
          9.86923e-13 9.86923e-13 9.86923e-13 9.86923e-13 9.86923e-13 9.86923e-13 9.86923e-13 9.86923e-13 9.86923e-13 9.86923e-13 9.86923e-13 9.86923e-13
          9.86923e-13 9.86923e-13 9.86923e-13 9.86923e-13 9.86923e-13 9.86923e-13 9.86923e-13 9.86923e-13 9.86923e-13 9.86923e-13 9.86923e-13 9.86923e-13
          9.86923e-13 9.86923e-13 9.86923e-13 9.86923e-13 9.86923e-13 9.86923e-13 9.86923e-13 9.86923e-13 9.86923e-13 9.86923e-13 9.86923e-13 9.86923e-13
          9.86923e-13 9.86923e-13 9.86923e-13 9.86923e-13 9.86923e-13 9.86923e-13 9.86923e-13 9.86923e-13 9.86923e-13 9.86923e-13 9.86923e-13 9.86923e-13
          9.86923e-13 9.86923e-13 9.86923e-13 9.86923e-13 9.86923e-13 9.86923e-13 9.86923e-13 9.86923e-13 9.86923e-13 9.86923e-13 9.86923e-13 9.86923e-13
          9.86923e-13 9.86923e-13 9.86923e-13 9.86923e-13 9.86923e-13 9.86923e-13 9.86923e-13 9.86923e-13 9.86923e-13 9.86923e-13 9.86923e-13 9.86923e-13
          9.86923e-13 9.86923e-13 9.86923e-13 9.86923e-13 9.86923e-13 9.86923e-13 9.86923e-13 9.86923e-13 9.86923e-13 9.86923e-13 9.86923e-13 9.86923e-13
          9.86923e-13 9.86923e-13 9.86923e-13 9.86923e-13 9.86923e-13 9.86923e-13 9.86923e-13 9.86923e-13 9.86923e-13 9.86923e-13 9.86923e-13 9.86923e-13
          9.86923e-13 9.86923e-13 9.86923e-13 9.86923e-13 9.86923e-13 9.86923e-13 9.86923e-13 9.86923e-13 9.86923e-13 9.86923e-13 9.86923e-13 9.86923e-13
          9.86923e-13 9.86923e-13 9.86923e-13 9.86923e-13 9.86923e-13 9.86923e-13 9.86923e-13 9.86923e-13 9.86923e-13 9.86923e-13 9.86923e-13 9.86923e-13
          9.86923e-13 9.86923e-13 9.86923e-13 9.86923e-13 9.86923e-13 9.86923e-13 9.86923e-13 9.86923e-13 9.86923e-13 9.86923e-13 9.86923e-13 9.86923e-13
          9.86923e-13 9.86923e-13 9.86923e-13 9.86923e-13 9.86923e-13 9.86923e-13 9.86923e-13 9.86923e-13 9.86923e-13 9.86923e-13 9.86923e-13 9.86923e-13
          9.86923e-13 9.86923e-13 9.86923e-13 9.86923e-13 9.86923e-13 9.86923e-13 9.86923e-13 9.86923e-13 9.86923e-13 9.86923e-13 9.86923e-13 9.86923e-13
          9.86923e-13 9.86923e-13 9.86923e-13 9.86923e-13 9.86923e-13 9.86923e-13 9.86923e-13 9.86923e-13 9.86923e-13 9.86923e-13 9.86923e-13 9.86923e-13
          9.86923e-13 9.86923e-13 9.86923e-13 9.86923e-13 9.86923e-13 9.86923e-13 9.86923e-13 9.86923e-13 9.86923e-13 9.86923e-13 9.86923e-13 9.86923e-13
          9.86923e-13 9.86923e-13 9.86923e-13 9.86923e-13 9.86923e-13 9.86923e-13 9.86923e-13 9.86923e-13 9.86923e-13 9.86923e-13 9.86923e-13 9.86923e-13
          9.86923e-13 9.86923e-13 9.86923e-13 9.86923e-13 9.86923e-13 9.86923e-13 9.86923e-13 9.86923e-13 9.86923e-13 9.86923e-13 9.86923e-13 9.86923e-13
          9.86923e-13 9.86923e-13 9.86923e-13 9.86923e-13 9.86923e-13 9.86923e-13 9.86923e-13 9.86923e-13 9.86923e-13 9.86923e-13 9.86923e-13 9.86923e-13
          9.86923e-13 9.86923e-13 9.86923e-13 9.86923e-13 9.86923e-13 9.86923e-13 9.86923e-13 9.86923e-13 9.86923e-13 9.86923e-13 9.86923e-13 9.86923e-13
          9.86923e-13 9.86923e-13 9.86923e-13 9.86923e-13 9.86923e-13 9.86923e-13 9.86923e-13 9.86923e-13 9.86923e-13 9.86923e-13 9.86923e-13 9.86923e-13
          9.86923e-13 9.86923e-13 9.86923e-13 9.86923e-13 9.86923e-13 9.86923e-13 9.86923e-13 9.86923e-13 9.86923e-13 9.86923e-13 9.86923e-13 9.86923e-13
          9.86923e-13 9.86923e-13 9.86923e-13 9.86923e-13 9.86923e-13 9.86923e-13
        </DataArray>
        <DataArray type="Float32" Name="ReservoirDist" NumberOfComponents="1" format="ascii">
          45.25 45.25 45.25 45.25 45.25 45.25 45.25 45.25 45.25 45.25 45.25 45.25
          45.25 45.25 45.25 45.25 45.25 45.25 45.25 45.25 45.25 45.25 45.25 45.25
          45.25 45.25 45.25 45.25 45.25 45.25 45.25 45.25 45.25 45.25 45.25 45.25
          45.25 45.25 45.25 45.25 45.25 45.25 45.25 45.25 45.25 45.25 45.25 45.25
          45.25 45.25 45.25 45.25 45.25 45.25 45.25 45.25 45.25 45.25 45.25 45.25
          45.25 45.25 45.25 45.25 45.25 45.25 45.25 45.25 45.25 45.25 45.25 45.25
          45.25 45.25 45.25 45.25 45.25 45.25 45.25 45.25 45.25 45.25 45.25 45.25
          45.25 45.25 45.25 45.25 45.25 45.25 45.25 45.25 45.25 45.25 45.25 45.25
          45.25 45.25 45.25 45.25 45.25 45.25 45.25 45.25 45.25 45.25 45.25 45.25
          45.25 45.25 45.25 45.25 45.25 45.25 45.25 45.25 45.25 45.25 45.25 45.25
          45.25 45.25 45.25 45.25 45.25 45.25 45.25 45.25 45.25 45.25 45.25 45.25
          45.25 45.25 45.25 45.25 45.25 45.25 45.25 45.25 45.25 45.25 45.25 45.25
          45.25 45.25 45.25 45.25 45.25 45.25 45.25 45.25 45.25 45.25 45.25 45.25
          45.25 45.25 45.25 45.25 45.25 45.25 45.25 45.25 45.25 45.25 45.25 45.25
          45.25 45.25 45.25 45.25 45.25 45.25 45.25 45.25 45.25 45.25 45.25 45.25
          45.25 45.25 45.25 45.25 45.25 45.25 45.25 45.25 45.25 45.25 45.25 45.25
          45.25 45.25 45.25 45.25 45.25 45.25 45.25 45.25 45.25 45.25 45.25 45.25
          45.25 45.25 45.25 45.25 45.25 45.25 45.25 45.25 45.25 45.25 45.25 45.25
          45.25 45.25 45.25 45.25 45.25 45.25 45.25 45.25 45.25 45.25 45.25 45.25
          45.25 45.25 45.25 45.25 45.25 45.25 45.25 45.25 45.25 45.25 45.25 45.25
          45.25 45.25 45.25 45.25 45.25 45.25 45.25 45.25 45.25 45.25 45.25 45.25
          45.25 45.25 45.25 45.25 45.25 45.25 45.25 45.25 45.25 45.25 45.25 45.25
          45.25 45.25 45.25 45.25 45.25 45.25 45.25 45.25 45.25 45.25 45.25 45.25
          45.25 45.25 45.25 45.25 45.25 45.25 45.25 45.25 45.25 45.25 45.25 45.25
          45.25 45.25 45.25 45.25 45.25 45.25 45.25 45.25 45.25 45.25 45.25 45.25
          45.25 45.25 45.25 45.25 45.25 45.25 45.25 45.25 45.25 45.25 45.25 45.25
          45.25 45.25 45.25 45.25 45.25 45.25 45.25 45.25 45.25 45.25 45.25 45.25
          45.25 45.25 45.25 45.25 45.25 45.25 45.25 45.25 45.25 45.25 45.25 45.25
          45.25 45.25 45.25 45.25 45.25 45.25 45.25 45.25 45.25 45.25 45.25 45.25
          45.25 45.25 45.25 45.25 45.25 45.25 45.25 45.25 45.25 45.25 45.25 45.25
          45.25 45.25 45.25 45.25 45.25 45.25 45.25 45.25 45.25 45.25 45.25 45.25
          45.25 45.25 45.25 45.25 45.25 45.25 45.25 45.25 45.25 45.25 45.25 45.25
          45.25 45.25 45.25 45.25 45.25 45.25 45.25 45.25 45.25 45.25 45.25 45.25
          45.25 45.25 45.25 45.25 45.25 45.25 45.25 45.25 45.25 45.25 45.25 45.25
          45.25 45.25 45.25 45.25 45.25 45.25 45.25 45.25 45.25 45.25 45.25 45.25
          45.25 45.25 45.25 45.25 45.25 45.25 45.25 45.25 45.25 45.25 45.25 45.25
          45.25 45.25 45.25 45.25 45.25 45.25 45.25 45.25 45.25 45.25 45.25 45.25
          45.25 45.25 45.25 45.25 45.25 45.25 45.25 45.25 45.25 45.25 45.25 45.25
          45.25 45.25 45.25 45.25 45.25 45.25 45.25 45.25 45.25 45.25 45.25 45.25
          45.25 45.25 45.25 45.25 45.25 45.25 45.25 45.25 45.25 45.25 45.25 45.25
          45.25 45.25 45.25 45.25 45.25 45.25 45.25 45.25 45.25 45.25 45.25 45.25
          45.25 45.25 45.25 45.25 45.25 45.25 45.25 45.25 45.25 45.25 45.25 45.25
          45.25 45.25 45.25 45.25 45.25 45.25 45.25 45.25 45.25 45.25 45.25 45.25
          45.25 45.25 45.25 45.25 45.25 45.25 45.25 45.25 45.25 45.25 45.25 45.25
          45.25 45.25 45.25 45.25 45.25 45.25 45.25 45.25 45.25 45.25 45.25 45.25
          45.25 45.25 45.25 45.25 45.25 45.25
        </DataArray>
        <DataArray type="Float32" Name="ReservoirCStres" NumberOfComponents="1" format="ascii">
          5.55e+06 5.55e+06 5.55e+06 5.55e+06 5.55e+06 5.55e+06 5.55e+06 5.55e+06 5.55e+06 5.55e+06 5.55e+06 5.55e+06
          5.55e+06 5.55e+06 5.55e+06 5.55e+06 5.55e+06 5.55e+06 5.55e+06 5.55e+06 5.55e+06 5.55e+06 5.55e+06 5.55e+06
          5.55e+06 5.55e+06 5.55e+06 5.55e+06 5.55e+06 5.55e+06 5.55e+06 5.55e+06 5.55e+06 5.55e+06 5.55e+06 5.55e+06
          5.55e+06 5.55e+06 5.55e+06 5.55e+06 5.55e+06 5.55e+06 5.55e+06 5.55e+06 5.55e+06 5.55e+06 5.55e+06 5.55e+06
          5.55e+06 5.55e+06 5.55e+06 5.55e+06 5.55e+06 5.55e+06 5.55e+06 5.55e+06 5.55e+06 5.55e+06 5.55e+06 5.55e+06
          5.55e+06 5.55e+06 5.55e+06 5.55e+06 5.55e+06 5.55e+06 5.55e+06 5.55e+06 5.55e+06 5.55e+06 5.55e+06 5.55e+06
          5.55e+06 5.55e+06 5.55e+06 5.55e+06 5.55e+06 5.55e+06 5.55e+06 5.55e+06 5.55e+06 5.55e+06 5.55e+06 5.55e+06
          5.55e+06 5.55e+06 5.55e+06 5.55e+06 5.55e+06 5.55e+06 5.55e+06 5.55e+06 5.55e+06 5.55e+06 5.55e+06 5.55e+06
          5.55e+06 5.55e+06 5.55e+06 5.55e+06 5.55e+06 5.55e+06 5.55e+06 5.55e+06 5.55e+06 5.55e+06 5.55e+06 5.55e+06
          5.55e+06 5.55e+06 5.55e+06 5.55e+06 5.55e+06 5.55e+06 5.55e+06 5.55e+06 5.55e+06 5.55e+06 5.55e+06 5.55e+06
          5.55e+06 5.55e+06 5.55e+06 5.55e+06 5.55e+06 5.55e+06 5.55e+06 5.55e+06 5.55e+06 5.55e+06 5.55e+06 5.55e+06
          5.55e+06 5.55e+06 5.55e+06 5.55e+06 5.55e+06 5.55e+06 5.55e+06 5.55e+06 5.55e+06 5.55e+06 5.55e+06 5.55e+06
          5.55e+06 5.55e+06 5.55e+06 5.55e+06 5.55e+06 5.55e+06 5.55e+06 5.55e+06 5.55e+06 5.55e+06 5.55e+06 5.55e+06
          5.55e+06 5.55e+06 5.55e+06 5.55e+06 5.55e+06 5.55e+06 5.55e+06 5.55e+06 5.55e+06 5.55e+06 5.55e+06 5.55e+06
          5.55e+06 5.55e+06 5.55e+06 5.55e+06 5.55e+06 5.55e+06 5.55e+06 5.55e+06 5.55e+06 5.55e+06 5.55e+06 5.55e+06
          5.55e+06 5.55e+06 5.55e+06 5.55e+06 5.55e+06 5.55e+06 5.55e+06 5.55e+06 5.55e+06 5.55e+06 5.55e+06 5.55e+06
          5.55e+06 5.55e+06 5.55e+06 5.55e+06 5.55e+06 5.55e+06 5.55e+06 5.55e+06 5.55e+06 5.55e+06 5.55e+06 5.55e+06
          5.55e+06 5.55e+06 5.55e+06 5.55e+06 5.55e+06 5.55e+06 5.55e+06 5.55e+06 5.55e+06 5.55e+06 5.55e+06 5.55e+06
          5.55e+06 5.55e+06 5.55e+06 5.55e+06 5.55e+06 5.55e+06 5.55e+06 5.55e+06 5.55e+06 5.55e+06 5.55e+06 5.55e+06
          5.55e+06 5.55e+06 5.55e+06 5.55e+06 5.55e+06 5.55e+06 5.55e+06 5.55e+06 5.55e+06 5.55e+06 5.55e+06 5.55e+06
          5.55e+06 5.55e+06 5.55e+06 5.55e+06 5.55e+06 5.55e+06 5.55e+06 5.55e+06 5.55e+06 5.55e+06 5.55e+06 5.55e+06
          5.55e+06 5.55e+06 5.55e+06 5.55e+06 5.55e+06 5.55e+06 5.55e+06 5.55e+06 5.55e+06 5.55e+06 5.55e+06 5.55e+06
          5.55e+06 5.55e+06 5.55e+06 5.55e+06 5.55e+06 5.55e+06 5.55e+06 5.55e+06 5.55e+06 5.55e+06 5.55e+06 5.55e+06
          5.55e+06 5.55e+06 5.55e+06 5.55e+06 5.55e+06 5.55e+06 5.55e+06 5.55e+06 5.55e+06 5.55e+06 5.55e+06 5.55e+06
          5.55e+06 5.55e+06 5.55e+06 5.55e+06 5.55e+06 5.55e+06 5.55e+06 5.55e+06 5.55e+06 5.55e+06 5.55e+06 5.55e+06
          5.55e+06 5.55e+06 5.55e+06 5.55e+06 5.55e+06 5.55e+06 5.55e+06 5.55e+06 5.55e+06 5.55e+06 5.55e+06 5.55e+06
          5.55e+06 5.55e+06 5.55e+06 5.55e+06 5.55e+06 5.55e+06 5.55e+06 5.55e+06 5.55e+06 5.55e+06 5.55e+06 5.55e+06
          5.55e+06 5.55e+06 5.55e+06 5.55e+06 5.55e+06 5.55e+06 5.55e+06 5.55e+06 5.55e+06 5.55e+06 5.55e+06 5.55e+06
          5.55e+06 5.55e+06 5.55e+06 5.55e+06 5.55e+06 5.55e+06 5.55e+06 5.55e+06 5.55e+06 5.55e+06 5.55e+06 5.55e+06
          5.55e+06 5.55e+06 5.55e+06 5.55e+06 5.55e+06 5.55e+06 5.55e+06 5.55e+06 5.55e+06 5.55e+06 5.55e+06 5.55e+06
          5.55e+06 5.55e+06 5.55e+06 5.55e+06 5.55e+06 5.55e+06 5.55e+06 5.55e+06 5.55e+06 5.55e+06 5.55e+06 5.55e+06
          5.55e+06 5.55e+06 5.55e+06 5.55e+06 5.55e+06 5.55e+06 5.55e+06 5.55e+06 5.55e+06 5.55e+06 5.55e+06 5.55e+06
          5.55e+06 5.55e+06 5.55e+06 5.55e+06 5.55e+06 5.55e+06 5.55e+06 5.55e+06 5.55e+06 5.55e+06 5.55e+06 5.55e+06
          5.55e+06 5.55e+06 5.55e+06 5.55e+06 5.55e+06 5.55e+06 5.55e+06 5.55e+06 5.55e+06 5.55e+06 5.55e+06 5.55e+06
          5.55e+06 5.55e+06 5.55e+06 5.55e+06 5.55e+06 5.55e+06 5.55e+06 5.55e+06 5.55e+06 5.55e+06 5.55e+06 5.55e+06
          5.55e+06 5.55e+06 5.55e+06 5.55e+06 5.55e+06 5.55e+06 5.55e+06 5.55e+06 5.55e+06 5.55e+06 5.55e+06 5.55e+06
          5.55e+06 5.55e+06 5.55e+06 5.55e+06 5.55e+06 5.55e+06 5.55e+06 5.55e+06 5.55e+06 5.55e+06 5.55e+06 5.55e+06
          5.55e+06 5.55e+06 5.55e+06 5.55e+06 5.55e+06 5.55e+06 5.55e+06 5.55e+06 5.55e+06 5.55e+06 5.55e+06 5.55e+06
          5.55e+06 5.55e+06 5.55e+06 5.55e+06 5.55e+06 5.55e+06 5.55e+06 5.55e+06 5.55e+06 5.55e+06 5.55e+06 5.55e+06
          5.55e+06 5.55e+06 5.55e+06 5.55e+06 5.55e+06 5.55e+06 5.55e+06 5.55e+06 5.55e+06 5.55e+06 5.55e+06 5.55e+06
          5.55e+06 5.55e+06 5.55e+06 5.55e+06 5.55e+06 5.55e+06 5.55e+06 5.55e+06 5.55e+06 5.55e+06 5.55e+06 5.55e+06
          5.55e+06 5.55e+06 5.55e+06 5.55e+06 5.55e+06 5.55e+06 5.55e+06 5.55e+06 5.55e+06 5.55e+06 5.55e+06 5.55e+06
          5.55e+06 5.55e+06 5.55e+06 5.55e+06 5.55e+06 5.55e+06 5.55e+06 5.55e+06 5.55e+06 5.55e+06 5.55e+06 5.55e+06
          5.55e+06 5.55e+06 5.55e+06 5.55e+06 5.55e+06 5.55e+06 5.55e+06 5.55e+06 5.55e+06 5.55e+06 5.55e+06 5.55e+06
          5.55e+06 5.55e+06 5.55e+06 5.55e+06 5.55e+06 5.55e+06 5.55e+06 5.55e+06 5.55e+06 5.55e+06 5.55e+06 5.55e+06
          5.55e+06 5.55e+06 5.55e+06 5.55e+06 5.55e+06 5.55e+06
        </DataArray>
        <DataArray type="Float32" Name="FracturePressure" NumberOfComponents="1" format="ascii">
          2.62963e+07 2.62963e+07 2.62914e+07 2.62963e+07 2.62963e+07 2.62914e+07 2.62914e+07 2.62865e+07 2.62865e+07 2.62816e+07 2.62816e+07 2.62767e+07
          2.62963e+07 2.62963e+07 2.62914e+07 2.62914e+07 2.62865e+07 2.62865e+07 2.62816e+07 2.62816e+07 2.62767e+07 2.62767e+07 2.62718e+07 2.62718e+07
          2.62669e+07 2.62669e+07 2.6262e+07 2.62963e+07 2.62963e+07 2.62914e+07 2.62914e+07 2.62865e+07 2.62865e+07 2.62816e+07 2.62816e+07 2.62767e+07
          2.62767e+07 2.62718e+07 2.62718e+07 2.62669e+07 2.62669e+07 2.6262e+07 2.6262e+07 2.62571e+07 2.62571e+07 2.62522e+07 2.62522e+07 2.62473e+07
          2.62963e+07 2.62963e+07 2.62914e+07 2.62914e+07 2.62865e+07 2.62865e+07 2.62816e+07 2.62816e+07 2.62767e+07 2.62767e+07 2.62718e+07 2.62718e+07
          2.62669e+07 2.62669e+07 2.6262e+07 2.6262e+07 2.62571e+07 2.62571e+07 2.62522e+07 2.62522e+07 2.62473e+07 2.62473e+07 2.62424e+07 2.62424e+07
          2.62375e+07 2.62375e+07 2.62325e+07 2.62963e+07 2.62963e+07 2.62914e+07 2.62914e+07 2.62865e+07 2.62865e+07 2.62816e+07 2.62816e+07 2.62767e+07
          2.62767e+07 2.62718e+07 2.62718e+07 2.62669e+07 2.62669e+07 2.6262e+07 2.6262e+07 2.62571e+07 2.62571e+07 2.62522e+07 2.62522e+07 2.62473e+07
          2.62473e+07 2.62424e+07 2.62424e+07 2.62375e+07 2.62375e+07 2.62326e+07 2.62326e+07 2.62277e+07 2.62276e+07 2.62227e+07 2.62227e+07 2.62178e+07
          2.62914e+07 2.62865e+07 2.62865e+07 2.62816e+07 2.62816e+07 2.62767e+07 2.62767e+07 2.62718e+07 2.62718e+07 2.62669e+07 2.62669e+07 2.6262e+07
          2.6262e+07 2.62571e+07 2.62571e+07 2.62522e+07 2.62522e+07 2.62473e+07 2.62473e+07 2.62424e+07 2.62424e+07 2.62375e+07 2.62375e+07 2.62326e+07
          2.62326e+07 2.62277e+07 2.62277e+07 2.62228e+07 2.62228e+07 2.62179e+07 2.62178e+07 2.62129e+07 2.62129e+07 2.62816e+07 2.62816e+07 2.62767e+07
          2.62767e+07 2.62718e+07 2.62718e+07 2.62669e+07 2.62669e+07 2.6262e+07 2.6262e+07 2.62571e+07 2.62571e+07 2.62522e+07 2.62522e+07 2.62473e+07
          2.62473e+07 2.62424e+07 2.62424e+07 2.62375e+07 2.62375e+07 2.62326e+07 2.62326e+07 2.62277e+07 2.62277e+07 2.62228e+07 2.62228e+07 2.62179e+07
          2.62179e+07 2.6213e+07 2.6213e+07 2.6208e+07 2.6208e+07 2.62031e+07 2.62767e+07 2.62718e+07 2.62718e+07 2.62669e+07 2.62669e+07 2.6262e+07
          2.6262e+07 2.62571e+07 2.62571e+07 2.62522e+07 2.62522e+07 2.62473e+07 2.62473e+07 2.62425e+07 2.62425e+07 2.62376e+07 2.62376e+07 2.62327e+07
          2.62326e+07 2.62277e+07 2.62277e+07 2.62228e+07 2.62228e+07 2.62179e+07 2.62179e+07 2.6213e+07 2.6213e+07 2.62081e+07 2.62081e+07 2.62032e+07
          2.62031e+07 2.61982e+07 2.61982e+07 2.62669e+07 2.62669e+07 2.6262e+07 2.6262e+07 2.62571e+07 2.62571e+07 2.62522e+07 2.62522e+07 2.62473e+07
          2.62473e+07 2.62424e+07 2.62424e+07 2.62376e+07 2.62376e+07 2.62327e+07 2.62327e+07 2.62278e+07 2.62278e+07 2.62229e+07 2.62229e+07 2.62179e+07
          2.62179e+07 2.6213e+07 2.6213e+07 2.62081e+07 2.62081e+07 2.62032e+07 2.62032e+07 2.61983e+07 2.61983e+07 2.61933e+07 2.61933e+07 2.61884e+07
          2.6262e+07 2.62571e+07 2.62571e+07 2.62522e+07 2.62522e+07 2.62473e+07 2.62473e+07 2.62424e+07 2.62424e+07 2.62375e+07 2.62375e+07 2.62326e+07
          2.62327e+07 2.62278e+07 2.62278e+07 2.62229e+07 2.62229e+07 2.6218e+07 2.6218e+07 2.62131e+07 2.6213e+07 2.62081e+07 2.62081e+07 2.62032e+07
          2.62032e+07 2.61983e+07 2.61983e+07 2.61934e+07 2.61934e+07 2.61884e+07 2.61884e+07 2.61835e+07 2.61835e+07 2.62522e+07 2.62522e+07 2.62473e+07
          2.62473e+07 2.62424e+07 2.62424e+07 2.62375e+07 2.62375e+07 2.62326e+07 2.62326e+07 2.62277e+07 2.62277e+07 2.62229e+07 2.62229e+07 2.6218e+07
          2.6218e+07 2.62131e+07 2.62131e+07 2.62082e+07 2.62082e+07 2.62032e+07 2.62032e+07 2.61983e+07 2.61983e+07 2.61934e+07 2.61934e+07 2.61885e+07
          2.61885e+07 2.61836e+07 2.61835e+07 2.61786e+07 2.61786e+07 2.61737e+07 2.62473e+07 2.62424e+07 2.62424e+07 2.62375e+07 2.62375e+07 2.62326e+07
          2.62326e+07 2.62277e+07 2.62277e+07 2.62228e+07 2.62228e+07 2.62179e+07 2.62179e+07 2.6213e+07 2.62131e+07 2.62082e+07 2.62082e+07 2.62033e+07
          2.62033e+07 2.61983e+07 2.61983e+07 2.61934e+07 2.61934e+07 2.61885e+07 2.61885e+07 2.61836e+07 2.61836e+07 2.61787e+07 2.61786e+07 2.61737e+07
          2.61737e+07 2.61688e+07 2.61688e+07 2.62375e+07 2.62375e+07 2.62326e+07 2.62326e+07 2.62277e+07 2.62277e+07 2.62228e+07 2.62228e+07 2.62179e+07
          2.62179e+07 2.6213e+07 2.6213e+07 2.62081e+07 2.62081e+07 2.62032e+07 2.62032e+07 2.61983e+07 2.61983e+07 2.61934e+07 2.61934e+07 2.61885e+07
          2.61885e+07 2.61836e+07 2.61836e+07 2.61787e+07 2.61787e+07 2.61738e+07 2.61737e+07 2.61688e+07 2.61688e+07 2.61639e+07 2.61639e+07 2.6159e+07
          2.62325e+07 2.62276e+07 2.62277e+07 2.62228e+07 2.62228e+07 2.62179e+07 2.62179e+07 2.6213e+07 2.6213e+07 2.62081e+07 2.62081e+07 2.62032e+07
          2.62032e+07 2.61983e+07 2.61983e+07 2.61934e+07 2.61934e+07 2.61885e+07 2.61885e+07 2.61836e+07 2.61836e+07 2.61787e+07 2.61787e+07 2.61738e+07
          2.61738e+07 2.61688e+07 2.61688e+07 2.61639e+07 2.61639e+07 2.6159e+07 2.6159e+07 2.61541e+07 2.61541e+07 2.62227e+07 2.62227e+07 2.62178e+07
          2.62179e+07 2.6213e+07 2.6213e+07 2.62081e+07 2.62081e+07 2.62032e+07 2.62032e+07 2.61983e+07 2.61983e+07 2.61934e+07 2.61934e+07 2.61885e+07
          2.61885e+07 2.61836e+07 2.61836e+07 2.61787e+07 2.61787e+07 2.61738e+07 2.61738e+07 2.61689e+07 2.61689e+07 2.61639e+07 2.61639e+07 2.6159e+07
          2.6159e+07 2.61541e+07 2.61541e+07 2.61492e+07 2.61492e+07 2.61443e+07 2.62178e+07 2.62129e+07 2.62129e+07 2.6208e+07 2.6208e+07 2.62031e+07
          2.62032e+07 2.61983e+07 2.61983e+07 2.61934e+07 2.61934e+07 2.61885e+07 2.61885e+07 2.61836e+07 2.61836e+07 2.61787e+07 2.61787e+07 2.61738e+07
          2.61738e+07 2.61689e+07 2.61689e+07 2.61639e+07 2.61639e+07 2.6159e+07 2.6159e+07 2.61541e+07 2.61541e+07 2.61492e+07 2.61492e+07 2.61443e+07
          2.61443e+07 2.61394e+07 2.61393e+07 2.62031e+07 2.61982e+07 2.61982e+07 2.61933e+07 2.61933e+07 2.61884e+07 2.61884e+07 2.61835e+07 2.61836e+07
          2.61786e+07 2.61787e+07 2.61737e+07 2.61738e+07 2.61688e+07 2.61688e+07 2.61639e+07 2.61639e+07 2.6159e+07 2.6159e+07 2.61541e+07 2.61541e+07
          2.61492e+07 2.61492e+07 2.61443e+07 2.61443e+07 2.61394e+07 2.61394e+07 2.61884e+07 2.61835e+07 2.61835e+07 2.61786e+07 2.61786e+07 2.61737e+07
          2.61737e+07 2.61688e+07 2.61688e+07 2.61639e+07 2.61639e+07 2.6159e+07 2.6159e+07 2.61541e+07 2.61541e+07 2.61492e+07 2.61492e+07 2.61443e+07
          2.61443e+07 2.61394e+07 2.61394e+07 2.61737e+07 2.61688e+07 2.61688e+07 2.61639e+07 2.61639e+07 2.6159e+07 2.6159e+07 2.61541e+07 2.61541e+07
          2.61492e+07 2.61492e+07 2.61443e+07 2.61443e+07 2.61394e+07 2.61394e+07 2.6159e+07 2.61541e+07 2.61541e+07 2.61492e+07 2.61492e+07 2.61443e+07
          2.61443e+07 2.61394e+07 2.61394e+07 2.61443e+07 2.61393e+07 2.61394e+07
        </DataArray>
        <DataArray type="Float32" Name="FractureHead" NumberOfComponents="1" format="ascii">
          -9155.85 -9168.69 -9155.9 -9130.23 -9135 -9129.24 -9136.1 -9129.58 -9136.16 -9129.36 -9135.21 -9130.49
          -9120.72 -9122.22 -9115.88 -9119.05 -9113.93 -9118.26 -9113.38 -9118.29 -9113.43 -9118.38 -9114.11 -9119.3
          -9116.2 -9122.65 -9121.21 -9122.22 -9120.72 -9112.57 -9112.57 -9106.41 -9107.92 -9102.62 -9105.43 -9100.6
          -9104.42 -9100.01 -9104.47 -9100.71 -9105.6 -9102.84 -9108.21 -9106.77 -9113.03 -9113.1 -9121.42 -9123.01
          -9135 -9130.23 -9119.05 -9115.88 -9107.92 -9106.41 -9099.71 -9099.71 -9093.7 -9095.15 -9089.69 -9092.5
          -9087.68 -9091.66 -9087.72 -9092.6 -9089.83 -9095.36 -9093.96 -9100.05 -9100.11 -9106.92 -9108.5 -9116.62
          -9119.9 -9131.32 -9136.25 -9168.69 -9155.85 -9136.1 -9129.24 -9118.26 -9113.93 -9105.43 -9102.62 -9095.15
          -9093.7 -9086.75 -9086.75 -9080.22 -9081.84 -9075.95 -9079.27 -9074.47 -9079.3 -9076.03 -9081.96 -9080.38
          -9086.98 -9087.03 -9094.07 -9095.59 -9103.17 -9106.07 -9114.73 -9119.18 -9130.4 -9137.45 -9157.7 -9170.91
          -9155.9 -9136.16 -9129.58 -9118.29 -9113.38 -9104.42 -9100.6 -9092.5 -9089.69 -9081.84 -9080.22 -9072.42
          -9072.42 -9064.92 -9067.08 -9060.61 -9065.17 -9060.64 -9067.14 -9065.01 -9072.56 -9072.6 -9080.47 -9082.14
          -9090.09 -9092.98 -9101.2 -9105.11 -9114.24 -9119.27 -9130.81 -9137.57 -9157.81 -9135.21 -9129.36 -9118.38
          -9113.43 -9104.47 -9100.01 -9091.66 -9087.68 -9079.27 -9075.95 -9067.08 -9064.92 -9055.56 -9055.56 -9046.42
          -9049.88 -9042.78 -9049.9 -9046.45 -9055.63 -9055.65 -9065.08 -9067.28 -9076.22 -9079.6 -9088.12 -9092.18
          -9100.66 -9105.22 -9114.35 -9119.42 -9130.65 -9136.66 -9130.49 -9119.3 -9114.11 -9105.6 -9100.71 -9092.6
          -9087.72 -9079.3 -9074.47 -9065.17 -9060.61 -9049.88 -9046.42 -9034.08 -9034.08 -9021.92 -9028.83 -9021.92
          -9034.09 -9034.1 -9046.49 -9049.97 -9060.78 -9065.38 -9074.78 -9079.68 -9088.21 -9093.17 -9101.41 -9106.41
          -9115.08 -9120.41 -9131.86 -9122.65 -9116.2 -9108.21 -9102.84 -9095.36 -9089.83 -9081.96 -9076.03 -9067.14
          -9060.64 -9049.9 -9042.78 -9028.83 -9021.92 -9003.1 -9003.1 -8984.4 -9003.08 -9003.06 -9021.91 -9028.84
          -9042.85 -9050.01 -9060.83 -9067.4 -9076.38 -9082.4 -9090.37 -9096 -9103.61 -9109.1 -9117.26 -9123.88
          -9121.21 -9113.03 -9106.77 -9100.05 -9093.96 -9086.98 -9080.38 -9072.56 -9065.01 -9055.63 -9046.45 -9034.09
          -9021.92 -9003.08 -8984.4 -8947.3 -8947.3 -8947.22 -8984.33 -9003.03 -9021.91 -9034.13 -9046.55 -9055.79
          -9065.26 -9072.89 -9080.8 -9087.5 -9094.58 -9100.79 -9107.64 -9114.04 -9122.42 -9121.42 -9113.1 -9106.92
          -9100.11 -9094.07 -9087.03 -9080.47 -9072.6 -9065.08 -9055.65 -9046.49 -9034.1 -9021.91 -9003.06 -8984.33