<?xml version="1.0"?>
<VTKFile type="UnstructuredGrid" version="0.1" byte_order="LittleEndian">
  <UnstructuredGrid>
    <Piece NumberOfCells="3025" NumberOfPoints="3744">
      <PointData Vectors="disp">
        <DataArray type="Float32" Name="disp" NumberOfComponents="3" format="ascii">
          0 0 -0.000268412 -0.000158338 0 -0.000337193 0 -0.00015834 -0.000337193 -0.000170289 -0.000170292 -0.000415352
          0 0 -0.000192061 -0.000146234 0 -0.000258846 0 -0.000146237 -0.000258845 -0.000157423 -0.000157426 -0.00033447
          -0.000192181 0 -0.000446027 -0.000205984 -0.000196047 -0.000540585 -0.000181281 0 -0.000367174 -0.000193979 -0.000181313 -0.000459015
          -0.000169055 0 -0.00052058 -0.000179893 -0.000220688 -0.000627174 -0.000162341 0 -0.000443349 -0.000172439 -0.000204108 -0.000547842
          -0.000106125 0 -0.000566525 -0.000112258 -0.000237658 -0.000680726 -0.00010323 0 -0.000489428 -0.00010894 -0.000219915 -0.000601929
          -3.34478e-05 0 -0.000573211 -3.52758e-05 -0.000245618 -0.00069072 -3.34092e-05 0 -0.000495271 -3.51111e-05 -0.000227327 -0.000611235
          3.34286e-05 0 -0.000573205 3.52568e-05 -0.000245618 -0.000690715 3.33888e-05 0 -0.000495266 3.50907e-05 -0.000227327 -0.000611229
          0.000106108 0 -0.000566509 0.00011224 -0.000237657 -0.000680708 0.000103211 0 -0.000489413 0.000108922 -0.000219914 -0.000601911
          0.00016904 0 -0.000520554 0.000179878 -0.000220686 -0.000627145 0.000162325 0 -0.000443323 0.000172423 -0.000204107 -0.000547813
          0.000192168 0 -0.000445993 0.000205971 -0.000196045 -0.000540547 0.000181269 0 -0.000367141 0.000193966 -0.000181312 -0.000458978
          0.000158328 0 -0.000337158 0.00017028 -0.00017029 -0.000415312 0.000146225 0 -0.000258811 0.000157414 -0.000157425 -0.000334432
          0 0 -0.000268378 0 -0.000158339 -0.000337155 0 0 -0.000192028 0 -0.000146236 -0.000258809
          0 -0.000192185 -0.000446023 -0.000196044 -0.000205988 -0.000540582 0 -0.000181286 -0.00036717 -0.000181311 -0.000193984 -0.000459012
          -0.000236832 -0.000236836 -0.000696011 -0.000222415 -0.00022242 -0.000614273 -0.000204092 -0.000267242 -0.000806489 -0.000195035 -0.000250656 -0.000728181
          -0.00012542 -0.000287634 -0.000875023 -0.000121211 -0.000269717 -0.000797913 -3.89909e-05 -0.000296552 -0.000891099 -3.8567e-05 -0.000278032 -0.000813441
          3.8972e-05 -0.000296552 -0.000891092 3.85466e-05 -0.000278033 -0.000813435 0.000125403 -0.000287636 -0.000875002 0.000121193 -0.000269718 -0.000797893
          0.000204078 -0.000267244 -0.000806455 0.000195019 -0.000250659 -0.000728148 0.000236819 -0.000236839 -0.000695968 0.000222402 -0.000222423 -0.000614231
          0.000196034 -0.000205992 -0.000540537 0.0001813 -0.000193988 -0.000458969 0 -0.00019219 -0.000445981 0 -0.000181291 -0.00036713
          0 -0.000169061 -0.000520572 -0.000220685 -0.000179899 -0.000627167 0 -0.000162349 -0.000443341 -0.000204105 -0.000172446 -0.000547835
          -0.000267238 -0.000204099 -0.000806485 -0.000250652 -0.000195042 -0.000728176 -0.000226954 -0.000226961 -0.000937057 -0.000216481 -0.000216488 -0.0008631
          -0.00013622 -0.000240232 -0.00101676 -0.000131279 -0.000228942 -0.000944231 -4.14466e-05 -0.000244571 -0.001036 -4.08274e-05 -0.000232955 -0.00096265
          4.14258e-05 -0.000244573 -0.001036 4.0805e-05 -0.000232957 -0.000962644 0.000136202 -0.000240237 -0.00101674 0.000131259 -0.000228947 -0.000944211
          0.000226939 -0.000226969 -0.000937023 0.000216464 -0.000216496 -0.000863068 0.000267224 -0.000204108 -0.00080644 0.000250638 -0.000195051 -0.000728134
          0.000220674 -0.000179909 -0.000627121 0.000204094 -0.000172456 -0.00054779 0 -0.000169072 -0.000520529 0 -0.000162359 -0.000443299
          0 -0.000106134 -0.000566512 -0.000237656 -0.000112266 -0.000680714 0 -0.000103239 -0.000489416 -0.000219913 -0.000108949 -0.000601917
          -0.00028763 -0.000125429 -0.000875014 -0.000269712 -0.00012122 -0.000797904 -0.000240225 -0.000136229 -0.00101675 -0.000228935 -0.000131288 -0.000944226
          -0.000140032 -0.000140041 -0.00109984 -0.000134737 -0.000134746 -0.00102825 -4.1343e-05 -0.000139411 -0.00111771 -4.06517e-05 -0.000134016 -0.00104451
          4.13182e-05 -0.000139414 -0.0011177 4.06255e-05 -0.000134019 -0.00104451 0.000140011 -0.000140049 -0.00109982 0.000134713 -0.000134754 -0.00102823
          0.000240208 -0.000136241 -0.00101672 0.000228916 -0.0001313 -0.000944195 0.000287615 -0.000125443 -0.000874971 0.000269697 -0.000121234 -0.000797863
          0.000237644 -0.000112281 -0.000680668 0.000219901 -0.000108964 -0.000601873 0 -0.000106149 -0.000566469 0 -0.000103255 -0.000489375
          0 -3.3458e-05 -0.000573194 -0.000245616 -3.52861e-05 -0.000690704 0 -3.34199e-05 -0.000495254 -0.000227324 -3.51218e-05 -0.000611219
          -0.000296547 -3.90012e-05 -0.000891086 -0.000278027 -3.85777e-05 -0.000813428 -0.000244564 -4.1457e-05 -0.00103599 -0.000232948 -4.08382e-05 -0.000962642
          -0.000139402 -4.13537e-05 -0.00111771 -0.000134006 -4.06628e-05 -0.00104451 -4.01522e-05 -4.01633e-05 -0.0011326 -3.94559e-05 -3.94675e-05 -0.001057
          4.01222e-05 -4.01666e-05 -0.00113259 3.94247e-05 -3.94707e-05 -0.001057 0.000139376 -4.13631e-05 -0.00111769 0.000133979 -4.0672e-05 -0.00104449
          0.000244544 -4.14713e-05 -0.00103597 0.000232926 -4.08521e-05 -0.000962614 0.000296532 -3.90183e-05 -0.000891045 0.000278011 -3.85944e-05 -0.00081339
          0.000245604 -3.53042e-05 -0.000690661 0.000227312 -3.51396e-05 -0.000611177 0 -3.34765e-05 -0.000573152 0 -3.34382e-05 -0.000495214
          0 3.34176e-05 -0.000573186 -0.000245615 3.52458e-05 -0.000690695 0 3.33775e-05 -0.000495246 -0.000227324 3.50795e-05 -0.00061121
          -0.000296547 3.8961e-05 -0.000891076 -0.000278027 3.85353e-05 -0.000813419 -0.000244565 4.14146e-05 -0.00103599 -0.000232949 4.07936e-05 -0.000962632
          -0.000139404 4.13067e-05 -0.0011177 -0.000134008 4.06138e-05 -0.0010445 -4.01548e-05 4.01103e-05 -0.00113259 -3.94585e-05 3.94125e-05 -0.001057
          4.01196e-05 4.0107e-05 -0.00113258 3.94222e-05 3.94093e-05 -0.00105699 0.000139374 4.12972e-05 -0.00111768 0.000133977 4.06045e-05 -0.00104449
          0.000244542 4.14e-05 -0.00103596 0.000232924 4.07793e-05 -0.000962608 0.000296531 3.89431e-05 -0.000891039 0.00027801 3.85178e-05 -0.000813384
          0.000245603 3.52269e-05 -0.000690654 0.000227312 3.50608e-05 -0.000611171 0 3.33984e-05 -0.000573145 0 3.33585e-05 -0.000495207
          0 0.000106097 -0.000566488 -0.000237654 0.00011223 -0.000680687 0 0.000103201 -0.000489392 -0.000219911 0.000108911 -0.00060189
          -0.00028763 0.000125393 -0.000874984 -0.000269713 0.000121182 -0.000797875 -0.000240229 0.000136191 -0.00101672 -0.000228939 0.000131248 -0.000944198
          -0.000140039 0.00014 -0.00109982 -0.000134743 0.000134702 -0.00102823 -4.13506e-05 0.000139365 -0.00111768 -4.06591e-05 0.000133967 -0.00104449
          4.13107e-05 0.000139362 -0.00111768 4.06182e-05 0.000133964 -0.00104449 0.000140004 0.000139991 -0.0010998 0.000134707 0.000134694 -0.00102821
          0.000240203 0.000136178 -0.0010167 0.000228911 0.000131235 -0.000944176 0.000287612 0.000125376 -0.000874951 0.000269694 0.000121165 -0.000797844
          0.000237643 0.000112212 -0.000680648 0.0002199 0.000108893 -0.000601854 0 0.000106079 -0.000566448 0 0.000103183 -0.000489354
          0 0.000169031 -0.000520532 -0.000220683 0.000179869 -0.000627123 0 0.000162316 -0.000443302 -0.000204104 0.000172414 -0.000547792
          -0.000267239 0.000204069 -0.000806436 -0.000250653 0.00019501 -0.00072813 -0.00022696 0.00022693 -0.000937009 -0.000216487 0.000216455 -0.000863054
          -0.00013623 0.000240199 -0.00101671 -0.000131288 0.000228907 -0.000944186 -4.1458e-05 0.000244534 -0.00103596 -4.08384e-05 0.000232916 -0.000962609
          4.14143e-05 0.000244532 -0.00103596 4.07938e-05 0.000232914 -0.000962606 0.000136192 0.000240192 -0.0010167 0.000131248 0.0002289 -0.000944176
          0.000226931 0.000226919 -0.000936988 0.000216456 0.000216444 -0.000863035 0.000267219 0.000204055 -0.000806406 0.000250633 0.000194996 -0.000728101
          0.000220672 0.000179854 -0.000627086 0.000204092 0.000172399 -0.000547757 0 0.000169016 -0.000520493 0 0.000162301 -0.000443264
          0 0.000192162 -0.00044597 -0.000196042 0.000205965 -0.000540524 0 0.000181262 -0.000367118 -0.000181308 0.00019396 -0.000458956
          -0.000236833 0.000236813 -0.000695948 -0.000222417 0.000222395 -0.000614212 -0.000204099 0.000267218 -0.000806425 -0.000195041 0.000250631 -0.000728119
          -0.000125431 0.000287609 -0.00087496 -0.000121222 0.00026969 -0.000797853 -3.90043e-05 0.000296525 -0.00089104 -3.85801e-05 0.000278004 -0.000813384
          3.89581e-05 0.000296523 -0.000891036 3.8533e-05 0.000278002 -0.000813381 0.00012539 0.000287604 -0.000874949 0.00012118 0.000269686 -0.000797843
          0.000204067 0.000267211 -0.000806405 0.000195008 0.000250624 -0.000728101 0.000236812 0.000236803 -0.000695919 0.000222395 0.000222386 -0.000614185
          0.000196031 0.000205955 -0.000540488 0.000181297 0.00019395 -0.000458922 0 0.000192152 -0.000445931 0 0.000181252 -0.000367081
          0 0.000158325 -0.000337134 -0.000170287 0.000170276 -0.000415288 0 0.000146222 -0.000258787 -0.000157422 0.00015741 -0.000334409
          -0.000205986 0.00019603 -0.000540517 -0.000193982 0.000181297 -0.000458949 -0.0001799 0.000220671 -0.000627105 -0.000172446 0.000204091 -0.000547775
          -0.000112269 0.00023764 -0.000680657 -0.000108951 0.000219897 -0.000601863 -3.52898e-05 0.0002456 -0.000690654 -3.51248e-05 0.000227309 -0.000611171
          3.52423e-05 0.0002456 -0.000690651 3.50765e-05 0.000227308 -0.000611168 0.000112227 0.000237638 -0.000680646 0.000108908 0.000219895 -0.000601852
          0.000179867 0.000220667 -0.000627085 0.000172412 0.000204088 -0.000547756 0.000205964 0.000196026 -0.000540488 0.000193959 0.000181292 -0.000458922
          0.000170277 0.000170272 -0.000415252 0.00015741 0.000157406 -0.000334373 0 0.00015832 -0.000337094 0 0.000146217 -0.000258748
          0 0 -0.000268353 -0.000158336 0 -0.000337131 0 0 -0.000192003 -0.000146233 0 -0.000258785
          -0.000192183 0 -0.00044596 -0.000181284 0 -0.000367109 -0.000169062 0 -0.000520513 -0.000162349 0 -0.000443283
          -0.000106137 0 -0.000566458 -0.000103242 0 -0.000489364 -3.34618e-05 0 -0.000573146 -3.3423e-05 0 -0.000495208
          3.34141e-05 0 -0.000573142 3.33744e-05 0 -0.000495204 0.000106094 0 -0.000566446 0.000103198 0 -0.000489352
          0.000169029 0 -0.000520492 0.000162314 0 -0.000443263 0.000192161 0 -0.000445931 0.000181261 0 -0.00036708
          0.000158325 0 -0.000337094 0.000146222 0 -0.000258748 0 0 -0.000268312 0 0 -0.000191963
          0 0 -0.000149268 -0.000135048 0 -0.000209904 0 -0.000135051 -0.000209904 -0.000146254 -0.000146257 -0.000277567
          -0.00017057 0 -0.000314398 -0.000182763 -0.000169656 -0.000396226 -0.000155827 0 -0.000392551 -0.000165559 -0.00019158 -0.000486794
          -0.000100317 0 -0.000438593 -0.000105787 -0.000206782 -0.000540854 -3.29212e-05 0 -0.000443814 -3.45271e-05 -0.000213859 -0.000549522
          3.28994e-05 0 -0.000443809 3.45054e-05 -0.000213858 -0.000549517 0.000100297 0 -0.000438578 0.000105768 -0.000206782 -0.000540838
          0.00015581 0 -0.000392527 0.000165542 -0.00019158 -0.000486767 0.000170557 0 -0.000314366 0.00018275 -0.000169655 -0.000396192
          0.000135039 0 -0.000209871 0.000146245 -0.000146257 -0.00027753 0 0 -0.000149235 0 -0.000135051 -0.000209869
          0 -0.000170575 -0.000314394 -0.000169654 -0.000182769 -0.000396223 -0.000209921 -0.000209926 -0.000543693 -0.000187305 -0.000236907 -0.000659691
          -0.000117454 -0.000255117 -0.000729617 -3.77233e-05 -0.000262903 -0.00074441 3.77013e-05 -0.000262904 -0.000744404 0.000117434 -0.000255119 -0.000729599
          0.000187288 -0.00023691 -0.000659662 0.000209907 -0.00020993 -0.000543655 0.000169643 -0.000182773 -0.000396183 0 -0.000170581 -0.000314356
          0 -0.000155835 -0.000392544 -0.000191578 -0.000165567 -0.000486786 -0.000236901 -0.000187313 -0.000659687 -0.000207879 -0.000207887 -0.000797515
          -0.000126717 -0.000219514 -0.000878818 -3.95955e-05 -0.000222863 -0.000895967 3.95714e-05 -0.000222865 -0.000895961 0.000126695 -0.000219519 -0.0008788
          0.000207861 -0.000207895 -0.000797486 0.000236887 -0.000187322 -0.000659649 0.000191566 -0.000165577 -0.000486746 0 -0.000155846 -0.000392505
          0 -0.000100327 -0.000438581 -0.00020678 -0.000105797 -0.000540842 -0.000255112 -0.000117463 -0.000729608 -0.000219506 -0.000126726 -0.000878813
          -0.000129199 -0.000129209 -0.00096204 -3.89289e-05 -0.000127675 -0.000975794 3.8901e-05 -0.000127678 -0.000975789 0.000129174 -0.000129217 -0.000962024
          0.000219486 -0.000126738 -0.000878787 0.000255096 -0.000117477 -0.000729573 0.000206768 -0.000105812 -0.000540804 0 -0.000100342 -0.000438543
          0 -3.29323e-05 -0.000443798 -0.000213856 -3.45382e-05 -0.000549506 -0.000262898 -3.77344e-05 -0.000744397 -0.000222855 -3.96067e-05 -0.000895958
          -0.000127665 -3.89403e-05 -0.00097579 -3.73385e-05 -3.73505e-05 -0.000984565 3.73057e-05 -3.73536e-05 -0.000984562 0.000127636 -3.89494e-05 -0.000975777
          0.000222832 -3.96204e-05 -0.000895935 0.000262881 -3.7751e-05 -0.000744365 0.000213844 -3.4556e-05 -0.00054947 0 -3.29504e-05 -0.000443761
          0 3.28878e-05 -0.00044379 -0.000213855 3.44938e-05 -0.000549498 -0.000262898 3.76898e-05 -0.000744388 -0.000222857 3.95598e-05 -0.00089595
          -0.000127667 3.8889e-05 -0.000975782 -3.73411e-05 3.72933e-05 -0.000984559 3.73032e-05 3.72901e-05 -0.000984556 0.000127634 3.88799e-05 -0.000975772
          0.00022283 3.95457e-05 -0.00089593 0.00026288 3.76725e-05 -0.000744359 0.000213843 3.44753e-05 -0.000549464 0 3.2869e-05 -0.000443755
          0 0.000100286 -0.000438557 -0.000206779 0.000105757 -0.000540818 -0.000255113 0.000117423 -0.000729582 -0.00021951 0.000126684 -0.000878788
          -0.000129205 0.000129163 -0.000962016 -3.89361e-05 0.000127624 -0.000975773 3.88938e-05 0.000127622 -0.000975771 0.000129168 0.000129155 -0.000962007
          0.00021948 0.000126671 -0.00087877 0.000255093 0.000117407 -0.000729556 0.000206766 0.000105739 -0.000540785 0 0.000100269 -0.000438523
          0 0.000155801 -0.000392505 -0.000191576 0.000165533 -0.000486745 -0.000236903 0.000187279 -0.000659644 -0.000207885 0.000207852 -0.000797472
          -0.000126726 0.000219476 -0.000878778 -3.96063e-05 0.000222822 -0.000895931 3.95605e-05 0.00022282 -0.000895928 0.000126685 0.000219469 -0.00087877
          0.000207853 0.000207841 -0.000797457 0.000236882 0.000187265 -0.00065962 0.000191564 0.000165518 -0.000486714 0 0.000155786 -0.000392471
          0 0.00017055 -0.000314344 -0.000169652 0.000182743 -0.00039617 -0.000209923 0.000209901 -0.000543636 -0.000187312 0.00023688 -0.000659635
          -0.000117464 0.00025509 -0.000729563 -3.77362e-05 0.000262874 -0.000744359 3.76879e-05 0.000262873 -0.000744357 0.000117421 0.000255085 -0.000729555
          0.000187278 0.000236873 -0.000659619 0.000209901 0.000209892 -0.000543613 0.00016964 0.000182733 -0.000396138 0 0.00017054 -0.000314309
          0 0.000135036 -0.000209848 -0.000146253 0.000146241 -0.000277507 -0.000182766 0.000169639 -0.000396164 -0.000165566 0.000191563 -0.000486731
          -0.000105799 0.000206764 -0.000540794 -3.45407e-05 0.00021384 -0.000549464 3.44913e-05 0.000213839 -0.000549461 0.000105755 0.000206762 -0.000540784
          0.000165531 0.00019156 -0.000486714 0.000182742 0.000169635 -0.000396138 0.000146242 0.000146237 -0.000277474 0 0.000135031 -0.00020981
          0 0 -0.000149211 -0.000135048 0 -0.000209845 -0.000170573 0 -0.000314336 -0.000155835 0 -0.000392489
          -0.000100329 0 -0.000438532 -3.29348e-05 0 -0.000443755 3.28852e-05 0 -0.000443752 0.000100284 0 -0.000438521
          0.000155799 0 -0.00039247 0.00017055 0 -0.000314308 0.000135036 0 -0.00020981 0 0 -0.000149172
          0 0 -0.000122781 -0.000124466 0 -0.000177008 0 -0.000124469 -0.000177008 -0.000135734 -0.000135737 -0.000236362
          -0.000160485 0 -0.000276553 -0.000172573 -0.000159093 -0.000347526 -0.000149435 0 -0.000356038 -0.000159093 -0.000180839 -0.000438624
          -9.74501e-05 0 -0.000402252 -0.000102824 -0.000195872 -0.000492614 -3.21181e-05 0 -0.000406801 -3.36481e-05 -0.000202776 -0.000500445
          3.20949e-05 0 -0.000406796 3.36249e-05 -0.000202775 -0.000500441 9.74289e-05 0 -0.000402238 0.000102803 -0.000195871 -0.000492599
          0.000149416 0 -0.000356014 0.000159075 -0.000180838 -0.0004386 0.000160471 0 -0.000276523 0.000172559 -0.000159092 -0.000347495
          0.000124457 0 -0.000176976 0.000135724 -0.000135737 -0.000236328 0 0 -0.00012275 0 -0.00012447 -0.000176974
          0 -0.000160491 -0.00027655 -0.00015909 -0.000172579 -0.000347523 -0.00019938 -0.000199385 -0.000484494 -0.000180629 -0.000225981 -0.000600627
          -0.00011412 -0.000243779 -0.000670401 -3.65699e-05 -0.000251093 -0.000684006 3.65463e-05 -0.000251094 -0.000684001 0.000114098 -0.000243781 -0.000670385
          0.00018061 -0.000225984 -0.000600601 0.000199365 -0.00019939 -0.000484462 0.000159079 -0.000172584 -0.000347488 0 -0.000160497 -0.000276515
          0 -0.000149443 -0.00035603 -0.000180836 -0.000159102 -0.000438617 -0.000225975 -0.000180637 -0.000600622 -0.000200815 -0.000200824 -0.000739223
          -0.000122492 -0.000211585 -0.000820171 -3.78533e-05 -0.000213927 -0.000835248 3.78274e-05 -0.000213929 -0.000835244 0.000122469 -0.00021159 -0.000820157
          0.000200796 -0.000200832 -0.0007392 0.00022596 -0.000180646 -0.000600591 0.000180825 -0.000159112 -0.000438582 0 -0.000149454 -0.000355995
          0 -9.74604e-05 -0.00040224 -0.000195869 -0.000102834 -0.000492602 -0.000243773 -0.00011413 -0.000670392 -0.000211576 -0.000122502 -0.000820167
          -0.000123368 -0.000123379 -0.000901523 -3.62637e-05 -0.000120323 -0.0009113 3.62339e-05 -0.000120326 -0.000911296 0.000123342 -0.000123386 -0.000901511
          0.000211555 -0.000122514 -0.000820146 0.000243757 -0.000114144 -0.000670364 0.000195857 -0.000102849 -0.00049257 0 -9.74757e-05 -0.000402205
          0 -3.21297e-05 -0.000406785 -0.000202773 -3.36596e-05 -0.00050043 -0.000251087 -3.65814e-05 -0.000683994 -0.000213918 -3.78649e-05 -0.00083524
          -0.000120312 -3.62756e-05 -0.000911296 -3.38737e-05 -3.38861e-05 -0.000914213 3.38391e-05 -3.38892e-05 -0.000914211 0.000120282 -3.62846e-05 -0.000911287
          0.000213894 -3.78785e-05 -0.000835223 0.000251069 -3.65979e-05 -0.000683969 0.000202761 -3.36772e-05 -0.000500399 0 -3.21476e-05 -0.000406752
          0 3.20831e-05 -0.000406778 -0.000202772 3.36131e-05 -0.000500422 -0.000251087 3.65345e-05 -0.000683986 -0.00021392 3.78155e-05 -0.000835233
          -0.000120315 3.62217e-05 -0.00091129 -3.38763e-05 3.38264e-05 -0.000914208 3.38367e-05 3.38233e-05 -0.000914207 0.00012028 3.62129e-05 -0.000911283
          0.000213892 3.78018e-05 -0.000835218 0.000251068 3.65175e-05 -0.000683964 0.00020276 3.35948e-05 -0.000500394 0 3.20645e-05 -0.000406746
          0 9.74179e-05 -0.000402217 -0.000195868 0.000102792 -0.000492579 -0.000243775 0.000114087 -0.000670368 -0.00021158 0.000122458 -0.000820145
          -0.000123374 0.00012333 -0.000901503 -3.62708e-05 0.00012027 -0.000911283 3.6227e-05 0.000120268 -0.000911281 0.000123336 0.000123322 -0.000901497
          0.00021155 0.000122445 -0.000820132 0.000243754 0.000114071 -0.000670348 0.000195856 0.000102775 -0.000492552 0 9.74004e-05 -0.000402186
          0 0.000149407 -0.000355993 -0.000180835 0.000159066 -0.000438579 -0.000225977 0.000180601 -0.000600584 -0.000200821 0.000200786 -0.000739186
          -0.000122501 0.000211545 -0.000820138 -3.7864e-05 0.000213884 -0.000835218 3.78168e-05 0.000213882 -0.000835217 0.000122459 0.000211538 -0.000820132
          0.000200788 0.000200776 -0.000739174 0.000225955 0.000180588 -0.000600564 0.000180823 0.000159052 -0.000438552 0 0.000149393 -0.000355962
          0 0.000160464 -0.000276502 -0.000159088 0.000172552 -0.000347473 -0.000199382 0.000199358 -0.000484443 -0.000180636 0.000225953 -0.000600577
          -0.00011413 0.00024375 -0.000670355 -3.65827e-05 0.000251062 -0.000683964 3.65332e-05 0.000251061 -0.000683962 0.000114086 0.000243746 -0.000670348
          0.0001806 0.000225946 -0.000600564 0.000199359 0.00019935 -0.000484423 0.000159077 0.000172542 -0.000347445 0 0.000160455 -0.000276469
          0 0.000124454 -0.000176953 -0.000135733 0.000135721 -0.000236305 -0.000172576 0.000159075 -0.000347469 -0.000159101 0.000180821 -0.000438568
          -0.000102835 0.000195853 -0.00049256 -3.36615e-05 0.000202757 -0.000500394 3.3611e-05 0.000202756 -0.000500391 0.00010279 0.000195852 -0.000492551
          0.000159064 0.000180819 -0.000438551 0.000172552 0.000159072 -0.000347445 0.000135721 0.000135716 -0.000236274 0 0.000124449 -0.000176918
          0 0 -0.000122726 -0.000124466 0 -0.000176951 -0.000160489 0 -0.000276495 -0.000149442 0 -0.00035598
          -9.74616e-05 0 -0.000402195 -3.21316e-05 0 -0.000406747 3.2081e-05 0 -0.000406743 9.74159e-05 0 -0.000402185
          0.000149406 0 -0.000355961 0.000160464 0 -0.000276468 0.000124454 0 -0.000176917 0 0 -0.000122688
          0 0 -0.000104731 -0.000114584 0 -0.000153351 0 -0.000114587 -0.00015335 -0.000125763 -0.000125766 -0.000205532
          -0.000151077 0 -0.000247679 -0.000163256 -0.000149124 -0.0003091 -0.000143263 0 -0.000327581 -0.000153076 -0.000171116 -0.000399565
          -9.46271e-05 0 -0.000374199 -0.000100013 -0.000186316 -0.000453568 -3.113e-05 0 -0.000377933 -3.25935e-05 -0.000193165 -0.000460301
          3.11054e-05 0 -0.000377929 3.25687e-05 -0.000193165 -0.000460297 9.46045e-05 0 -0.000374186 9.99908e-05 -0.000186316 -0.000453555
          0.000143243 0 -0.000327559 0.000153057 -0.000171116 -0.000399543 0.000151062 0 -0.000247651 0.000163241 -0.000149124 -0.000309072
          0.000114575 0 -0.00015332 0.000125753 -0.000125767 -0.000205501 0 0 -0.0001047 0 -0.000114589 -0.000153318
          0 -0.000151083 -0.000247676 -0.000149121 -0.000163262 -0.000309097 -0.000190343 -0.000190349 -0.000435239 -0.000174969 -0.000217337 -0.000549883
          -0.00011113 -0.000235146 -0.000619403 -3.52085e-05 -0.000242028 -0.000631311 3.51831e-05 -0.000242029 -0.000631307 0.000111106 -0.000235149 -0.00061939
          0.00017495 -0.000217341 -0.000549861 0.000190327 -0.000190354 -0.000435212 0.00014911 -0.000163267 -0.000309066 0 -0.000151089 -0.000247643
          0 -0.000143271 -0.000327573 -0.000171113 -0.000153085 -0.000399558 -0.000217331 -0.000174978 -0.000549878 -0.000195267 -0.000195276 -0.000687503
          -0.000118499 -0.000205135 -0.000767868 -3.56739e-05 -0.000206089 -0.000779921 3.56461e-05 -0.000206091 -0.000779917 0.000118474 -0.00020514 -0.000767857
          0.000195246 -0.000195284 -0.000687483 0.000217315 -0.000174988 -0.000549853 0.000171102 -0.000153096 -0.000399528 0 -0.000143282 -0.000327541
          0 -9.46379e-05 -0.000374188 -0.000186313 -0.000100024 -0.000453556 -0.00023514 -0.00011114 -0.000619394 -0.000205126 -0.00011851 -0.000767864
          -0.000117055 -0.000117066 -0.000846492 -3.26611e-05 -0.000111657 -0.000850397 3.26292e-05 -0.000111659 -0.000850395 0.000117027 -0.000117074 -0.000846484
          0.000205103 -0.000118522 -0.000767848 0.000235123 -0.000111154 -0.000619372 0.000186301 -0.000100039 -0.000453529 0 -9.46532e-05 -0.000374157
          0 -3.1142e-05 -0.000377918 -0.000193162 -3.26054e-05 -0.000460286 -0.000242022 -3.52204e-05 -0.000631298 -0.000206079 -3.56859e-05 -0.000779912
          -0.000111645 -3.26734e-05 -0.000850394 -2.89922e-05 -2.90049e-05 -0.000844555 2.89554e-05 -2.90081e-05 -0.000844553 0.000111613 -3.26823e-05 -0.000850388
          0.000206053 -3.56995e-05 -0.0007799 0.000242003 -3.52368e-05 -0.000631279 0.000193151 -3.26229e-05 -0.00046026 0 -3.11598e-05 -0.000377888
          0 3.10933e-05 -0.000377911 -0.000193162 3.25566e-05 -0.000460279 -0.000242022 3.5171e-05 -0.000631291 -0.000206081 3.56339e-05 -0.000779906
          -0.000111647 3.26168e-05 -0.000850389 -2.89947e-05 2.89424e-05 -0.000844551 2.89531e-05 2.89395e-05 -0.00084455 0.000111611 3.26081e-05 -0.000850385
          0.000206052 3.56205e-05 -0.000779896 0.000242002 3.51543e-05 -0.000631275 0.000193151 3.25386e-05 -0.000460255 0 3.10749e-05 -0.000377882
          0 9.45933e-05 -0.000374166 -0.000186312 9.99796e-05 -0.000453535 -0.000235142 0.000111095 -0.000619374 -0.00020513 0.000118463 -0.000767845
          -0.000117062 0.000117016 -0.000846476 -3.26682e-05 0.000111601 -0.000850384 3.26226e-05 0.000111598 -0.000850384 0.000117022 0.000117008 -0.000846473
          0.000205098 0.000118451 -0.000767836 0.00023512 0.00011108 -0.000619358 0.000186301 9.99627e-05 -0.000453512 0 9.45761e-05 -0.000374138
          0 0.000143234 -0.000327538 -0.000171112 0.000153048 -0.000399523 -0.000217333 0.00017494 -0.000549844 -0.000195274 0.000195237 -0.000687471
          -0.000118509 0.000205093 -0.00076784 -3.56845e-05 0.000206043 -0.000779896 3.56358e-05 0.000206041 -0.000779895 0.000118465 0.000205087 -0.000767835
          0.000195239 0.000195227 -0.000687461 0.00021731 0.000174927 -0.000549828 0.000171101 0.000153033 -0.000399499 0 0.00014322 -0.000327509
          0 0.000151056 -0.00024763 -0.00014912 0.000163234 -0.000309051 -0.000190346 0.000190321 -0.000435194 -0.000174977 0.000217308 -0.000549839
          -0.00011114 0.000235116 -0.000619363 -3.52212e-05 0.000241996 -0.000631275 3.51703e-05 0.000241995 -0.000631273 0.000111095 0.000235112 -0.000619357
          0.00017494 0.000217301 -0.000549828 0.000190321 0.000190312 -0.000435175 0.000149108 0.000163224 -0.000309025 0 0.000151046 -0.000247599
          0 0.000114571 -0.000153298 -0.000125763 0.00012575 -0.000205479 -0.000163259 0.000149107 -0.000309047 -0.000153084 0.000171098 -0.000399514
          -0.000100025 0.000186298 -0.00045352 -3.26068e-05 0.000193147 -0.000460255 3.25551e-05 0.000193147 -0.000460253 9.99781e-05 0.000186296 -0.000453511
          0.000153046 0.000171096 -0.000399498 0.000163234 0.000149104 -0.000309025 0.000125751 0.000125746 -0.000205449 0 0.000114567 -0.000153263
          0 0 -0.000104677 -0.000114584 0 -0.000153296 -0.000151081 0 -0.000247624 -0.000143271 0 -0.000327527
          -9.46385e-05 0 -0.000374147 -3.11434e-05 0 -0.000377883 3.10917e-05 0 -0.00037788 9.45918e-05 0 -0.000374137
          0.000143233 0 -0.000327508 0.000151055 0 -0.000247598 0.000114572 0 -0.000153263 0 0 -0.00010464
          0 0 -9.13733e-05 -0.000105542 0 -0.000135343 0 -0.000105546 -0.000135342 -0.000116474 -0.000116478 -0.000181708
          -0.000142311 0 -0.000224514 -0.000154642 -0.000139741 -0.000278119 -0.000137397 0 -0.000303908 -0.000147534 -0.000162209 -0.000366984
          -9.18712e-05 0 -0.000351092 -9.73531e-05 -0.000177828 -0.000421098 -3.00398e-05 0 -0.000353843 -3.14334e-05 -0.000184703 -0.000426467
          3.00137e-05 0 -0.000353839 3.1407e-05 -0.000184703 -0.000426463 9.18472e-05 0 -0.000351079 9.73289e-05 -0.000177828 -0.000421086
          0.000137377 0 -0.000303887 0.000147514 -0.000162209 -0.000366964 0.000142295 0 -0.000224487 0.000154626 -0.000139741 -0.000278093
          0.000105533 0 -0.000135314 0.000116465 -0.000116479 -0.000181679 0 0 -9.13437e-05 0 -0.000105547 -0.000135312
          0 -0.000142317 -0.00022451 -0.000139737 -0.000154648 -0.000278116 -0.000182385 -0.000182391 -0.000394058 -0.000170295 -0.000210427 -0.000506063
          -0.000108457 -0.000228672 -0.000575363 -3.36823e-05 -0.00023515 -0.000585059 3.36551e-05 -0.000235151 -0.000585056 0.000108432 -0.000228676 -0.000575353
          0.000170274 -0.000210431 -0.000506045 0.000182368 -0.000182397 -0.000394034 0.000139727 -0.000154654 -0.000278088 0 -0.000142324 -0.00022448
          0 -0.000137406 -0.0003039 -0.000162206 -0.000147544 -0.000366977 -0.00021042 -0.000170304 -0.000506059 -0.000191262 -0.000191271 -0.000641594
          -0.000114694 -0.000200229 -0.000721386 -3.30438e-05 -0.000199351 -0.000729357 3.30139e-05 -0.000199353 -0.000729355 0.000114668 -0.000200235 -0.000721377
          0.000191239 -0.000191279 -0.000641578 0.000210403 -0.000170315 -0.000506037 0.000162195 -0.000147555 -0.00036695 0 -0.000137418 -0.00030387
          0 -9.18825e-05 -0.00035108 -0.000177825 -9.73644e-05 -0.000421086 -0.000228666 -0.000108468 -0.000575355 -0.00020022 -0.000114706 -0.000721381
          -0.000110062 -0.000110074 -0.000796549 -2.79687e-05 -0.000101246 -0.000792204 2.79346e-05 -0.000101249 -0.000792203 0.000110032 -0.000110082 -0.000796543
          0.000200195 -0.000114718 -0.000721368 0.000228648 -0.000108482 -0.000575336 0.000177814 -9.73794e-05 -0.000421062 0 -9.18977e-05 -0.000351051
          0 -3.00522e-05 -0.000353827 -0.0001847 -3.14457e-05 -0.000426451 -0.000235143 -3.36947e-05 -0.000585047 -0.000199342 -3.30562e-05 -0.000729349
          -0.000101234 -2.79814e-05 -0.000792201 -2.23906e-05 -2.24037e-05 -0.000773714 2.23514e-05 -2.24069e-05 -0.000773714 0.0001012 -2.79903e-05 -0.000792197
          0.000199314 -3.30697e-05 -0.00072934 0.000235124 -3.3711e-05 -0.000585032 0.000184689 -3.14631e-05 -0.000426429 0 -3.00698e-05 -0.0003538
          0 3.00013e-05 -0.000353821 -0.0001847 3.13947e-05 -0.000426445 -0.000235144 3.36428e-05 -0.000585041 -0.000199343 3.30015e-05 -0.000729344
          -0.000101236 2.79218e-05 -0.000792197 -2.23931e-05 2.23382e-05 -0.000773711 2.23492e-05 2.23353e-05 -0.000773711 0.000101198 2.79135e-05 -0.000792194
          0.000199313 3.29884e-05 -0.000729336 0.000235123 3.36264e-05 -0.000585027 0.000184689 3.13769e-05 -0.000426424 0 2.99832e-05 -0.000353794
          0 9.18358e-05 -0.00035106 -0.000177824 9.73176e-05 -0.000421067 -0.000228668 0.000108421 -0.000575336 -0.000200225 0.000114656 -0.000721365