<?xml version="1.0"?>
<VTKFile type="UnstructuredGrid" version="0.1" byte_order="LittleEndian">
  <UnstructuredGrid>
    <Piece NumberOfCells="3025" NumberOfPoints="3744">
      <PointData Vectors="disp">
        <DataArray type="Float32" Name="disp" NumberOfComponents="3" format="ascii">
          0 0 -0.000258953 -0.000147631 0 -0.000329835 0 -0.000147618 -0.000329836 -0.000158307 -0.000158294 -0.000410149
          0 0 -0.000183861 -0.000135116 0 -0.000252857 0 -0.000135103 -0.000252858 -0.00014506 -0.000145047 -0.000330774
          -0.000168296 0 -0.000442568 -0.000178941 -0.000179616 -0.000538974 -0.000157209 0 -0.000365448 -0.000166894 -0.000164678 -0.000459348
          -0.000128541 0 -0.000513887 -0.000134052 -0.000195773 -0.000620693 -0.000123431 0 -0.000438935 -0.000128515 -0.000179449 -0.000543901
          -5.64437e-05 0 -0.000534755 -5.67467e-05 -0.000201589 -0.000645971 -5.77051e-05 0 -0.000459415 -5.79417e-05 -0.000184771 -0.000569083
          -8.60611e-06 0 -0.000502866 -7.78614e-06 -0.000201072 -0.000614471 -1.12155e-05 0 -0.000424757 -1.04282e-05 -0.00018422 -0.000534778
          8.67513e-06 0 -0.000502872 7.85475e-06 -0.000201073 -0.000614477 1.12856e-05 0 -0.000424763 1.04979e-05 -0.000184221 -0.000534784
          5.6511e-05 0 -0.000534768 5.68138e-05 -0.000201589 -0.000645984 5.7773e-05 0 -0.000459428 5.80095e-05 -0.000184771 -0.000569097
          0.000128599 0 -0.000513903 0.000134111 -0.000195774 -0.00062071 0.00012349 0 -0.000438951 0.000128574 -0.000179449 -0.000543917
          0.000168338 0 -0.000442589 0.000178983 -0.000179615 -0.000538996 0.000157251 0 -0.000365468 0.000166937 -0.000164677 -0.000459368
          0.000147653 0 -0.00032986 0.000158328 -0.000158293 -0.000410174 0.000135138 0 -0.000252881 0.000145082 -0.000145046 -0.000330799
          0 0 -0.00025898 0 -0.000147617 -0.000329864 0 0 -0.000183887 0 -0.000135101 -0.000252885
          0 -0.000168271 -0.00044257 -0.000179628 -0.000178916 -0.000538976 0 -0.000157184 -0.00036545 -0.000164691 -0.00016687 -0.00045935
          -0.000199326 -0.000199302 -0.000695845 -0.000185432 -0.000185407 -0.000616676 -0.00014129 -0.000210769 -0.000794925 -0.000135194 -0.000195853 -0.000719839
          -5.18261e-05 -0.000207272 -0.000824124 -5.32418e-05 -0.000192511 -0.00074916 -3.3889e-06 -0.00019847 -0.000789119 -6.25664e-06 -0.000184189 -0.000710836
          3.45364e-06 -0.000198471 -0.000789126 6.3227e-06 -0.00018419 -0.000710843 5.18908e-05 -0.000207274 -0.00082414 5.33073e-05 -0.000192513 -0.000749176
          0.000141348 -0.000210771 -0.000794945 0.000135252 -0.000195854 -0.000719858 0.000199368 -0.000199303 -0.000695869 0.000185474 -0.000185407 -0.000616699
          0.000179649 -0.000178916 -0.000539004 0.000164712 -0.000166869 -0.000459376 0 -0.000168269 -0.000442601 0 -0.000157182 -0.00036548
          0 -0.000128507 -0.000513893 -0.000195785 -0.000134019 -0.000620699 0 -0.000123397 -0.000438942 -0.000179461 -0.000128481 -0.000543906
          -0.000210792 -0.000141257 -0.000794929 -0.000195877 -0.00013516 -0.000719843 -0.000135023 -0.000134991 -0.000899607 -0.000129341 -0.000129308 -0.000829164
          -3.27029e-05 -0.000113099 -0.0009187 -3.5198e-05 -0.000108756 -0.000847404 7.33634e-06 -9.20526e-05 -0.000869607 3.89808e-06 -8.88787e-05 -0.000793358
          -7.27778e-06 -9.20543e-05 -0.000869616 -3.83779e-06 -8.88802e-05 -0.000793367 3.2764e-05 -0.000113103 -0.000918722 3.526e-05 -0.000108759 -0.000847425
          0.000135079 -0.000134995 -0.000899633 0.000129397 -0.000129311 -0.00082919 0.000210834 -0.000141259 -0.000794958 0.000195918 -0.000135162 -0.000719871
          0.000195806 -0.000134019 -0.000620731 0.000179482 -0.000128481 -0.000543938 0 -0.000128507 -0.000513929 0 -0.000123395 -0.000438976
          0 -5.64038e-05 -0.000534768 -0.0002016 -5.67069e-05 -0.000645983 0 -5.76643e-05 -0.000459427 -0.000184782 -5.7901e-05 -0.000569095
          -0.000207294 -5.17871e-05 -0.000824134 -0.000192533 -5.3202e-05 -0.00074917 -0.00011313 -3.26653e-05 -0.000918707 -0.000108787 -3.51596e-05 -0.00084741
          -1.56389e-06 -1.528e-06 -0.000912837 -5.7249e-06 -5.68817e-06 -0.000837994 2.25791e-05 2.38062e-05 -0.000840511 1.83808e-05 1.83896e-05 -0.000757904
          -2.2527e-05 2.38044e-05 -0.000840523 -1.83265e-05 1.83881e-05 -0.000757916 1.62113e-06 -1.5323e-06 -0.000912865 5.78337e-06 -5.69181e-06 -0.000838023
          0.000113185 -3.26699e-05 -0.000918742 0.000108842 -3.51633e-05 -0.000847445 0.000207336 -5.17906e-05 -0.000824172 0.000192575 -5.32045e-05 -0.000749207
          0.000201621 -5.67091e-05 -0.000646024 0.000184804 -5.79022e-05 -0.000569135 0 -5.64046e-05 -0.000534811 0 -5.76642e-05 -0.00045947
          0 -8.56319e-06 -0.000502888 -0.000201083 -7.74339e-06 -0.000614492 0 -1.11715e-05 -0.000424779 -0.000184231 -1.03843e-05 -0.000534799
          -0.000198491 -3.34707e-06 -0.000789138 -0.00018421 -6.2137e-06 -0.000710854 -9.20813e-05 7.37682e-06 -0.000869622 -8.89079e-05 3.93966e-06 -0.000793373
          2.3772e-05 2.26178e-05 -0.000840519 1.83546e-05 1.84206e-05 -0.000757912 3.43546e-05 3.43916e-05 -0.000748888 2.96112e-05 2.96493e-05 -0.000656008
          -3.43057e-05 3.43908e-05 -0.000748902 -2.95597e-05 2.96487e-05 -0.000656023 -2.37163e-05 2.2616e-05 -0.000840555 -1.82973e-05 1.84193e-05 -0.000757949
          9.21367e-05 7.37459e-06 -0.000869667 8.8964e-05 3.93819e-06 -0.000793417 0.000198533 -3.34898e-06 -0.000789186 0.000184253 -6.21471e-06 -0.000710901
          0.000201105 -7.74485e-06 -0.000614542 0.000184253 -1.03848e-05 -0.000534848 0 -8.56351e-06 -0.000502941 0 -1.11709e-05 -0.000424831
          0 8.71801e-06 -0.000502904 -0.000201083 7.89745e-06 -0.000614509 0 1.13298e-05 -0.000424794 -0.000184231 1.05418e-05 -0.000534815
          -0.000198491 3.4956e-06 -0.000789156 -0.00018421 6.36581e-06 -0.000710872 -9.20817e-05 -7.23709e-06 -0.000869642 -8.89081e-05 -3.79594e-06 -0.000793392
          2.37716e-05 -2.2488e-05 -0.000840542 1.83545e-05 -1.82863e-05 -0.000757935 3.43552e-05 -3.42683e-05 -0.000748913 2.96121e-05 -2.95212e-05 -0.000656034
          -3.43035e-05 -3.42674e-05 -0.000748928 -2.95574e-05 -2.95202e-05 -0.00065605 -2.37133e-05 -2.24859e-05 -0.000840581 -1.82943e-05 -1.8284e-05 -0.000757975
          9.21394e-05 -7.23505e-06 -0.000869692 8.89667e-05 -3.7935e-06 -0.000793442 0.000198535 3.49696e-06 -0.00078921 0.000184255 6.36776e-06 -0.000710925
          0.000201106 7.8983e-06 -0.000614566 0.000184254 1.05433e-05 -0.000534872 0 8.7195e-06 -0.000502965 0 1.13319e-05 -0.000424854
          0 5.65512e-05 -0.00053481 -0.000201599 5.6854e-05 -0.000646027 0 5.78143e-05 -0.000459469 -0.000184781 5.80506e-05 -0.000569138
          -0.000207293 5.19303e-05 -0.00082418 -0.000192532 5.33478e-05 -0.000749215 -0.00011313 3.28022e-05 -0.000918758 -0.000108786 3.52993e-05 -0.00084746
          -1.56412e-06 1.65788e-06 -0.000912895 -5.72448e-06 5.82115e-06 -0.000838052 2.25812e-05 -2.3681e-05 -0.000840576 1.83834e-05 -1.8261e-05 -0.000757969
          -2.25212e-05 -2.36791e-05 -0.000840591 -1.83205e-05 -1.82591e-05 -0.000757985 1.62874e-06 1.66223e-06 -0.000912934 5.79101e-06 5.82556e-06 -0.000838091
          0.000113192 3.28067e-05 -0.000918809 0.000108849 3.53039e-05 -0.000847511 0.00020734 5.19334e-05 -0.000824238 0.000192579 5.33512e-05 -0.000749272
          0.000201623 5.68559e-05 -0.000646089 0.000184806 5.8053e-05 -0.000569199 0 5.65534e-05 -0.000534877 0 5.78168e-05 -0.000459535
          0 0.000128634 -0.000513954 -0.000195783 0.000134146 -0.00062076 0 0.000123525 -0.000439 -0.000179459 0.000128609 -0.000543966
          -0.00021079 0.000141382 -0.000794993 -0.000195874 0.000135286 -0.000719905 -0.000135021 0.000135112 -0.000899677 -0.000129338 0.000129431 -0.000829233
          -3.27014e-05 0.000113217 -0.000918779 -3.51956e-05 0.000108875 -0.000847482 7.34005e-06 9.21672e-05 -0.000869695 3.90264e-06 8.89953e-05 -0.000793445
          -7.27017e-06 9.21689e-05 -0.00086971 -3.82977e-06 8.8997e-05 -0.00079346 3.27733e-05 0.000113221 -0.000918817 3.52694e-05 0.000108879 -0.000847519
          0.000135087 0.000135116 -0.000899728 0.000129405 0.000129435 -0.000829283 0.000210839 0.000141384 -0.000795053 0.000195924 0.000135289 -0.000719964
          0.000195809 0.000134147 -0.000620827 0.000179485 0.000128611 -0.000544031 0 0.000128635 -0.000514025 0 0.000123527 -0.00043907
          0 0.000168363 -0.000442643 -0.000179625 0.000179009 -0.000539049 0 0.000157277 -0.000365521 -0.000164687 0.000166963 -0.000459421
          -0.000199322 0.000199393 -0.000695921 -0.000185426 0.000185499 -0.00061675 -0.000141286 0.000210858 -0.000795007 -0.000135188 0.000195943 -0.000719918
          -5.18222e-05 0.000207359 -0.000824215 -5.32369e-05 0.000192599 -0.000749249 -3.38366e-06 0.000198556 -0.00078922 -6.25038e-06 0.000184276 -0.000710935
          3.46173e-06 0.000198557 -0.000789235 6.33136e-06 0.000184277 -0.000710949 5.18998e-05 0.000207362 -0.000824252 5.33166e-05 0.000192602 -0.000749286
          0.000141355 0.000210861 -0.000795059 0.000135259 0.000195946 -0.000719969 0.000199373 0.000199395 -0.000695984 0.000185479 0.000185501 -0.000616811
          0.000179652 0.00017901 -0.00053912 0.000164715 0.000166964 -0.00045949 0 0.000168364 -0.000442719 0 0.000157278 -0.000365595
          0 0.000147667 -0.000329916 -0.000158303 0.000158342 -0.000410231 0 0.000135152 -0.000252936 -0.000145056 0.000145096 -0.000330854
          -0.000178935 0.000179663 -0.000539059 -0.000166888 0.000164726 -0.00045943 -0.000134046 0.000195819 -0.000620783 -0.000128508 0.000179496 -0.000543988
          -5.6741e-05 0.000201634 -0.00064607 -5.79349e-05 0.000184817 -0.00056918 -7.77971e-06 0.000201117 -0.00061458 -1.04207e-05 0.000184266 -0.000534885
          7.86284e-06 0.000201117 -0.000614594 1.05067e-05 0.000184266 -0.000534899 5.6822e-05 0.000201635 -0.000646107 5.80181e-05 0.000184818 -0.000569217
          0.000134117 0.000195821 -0.000620836 0.000128581 0.000179497 -0.00054404 0.000178988 0.000179664 -0.000539124 0.000166942 0.000164727 -0.000459493
          0.000158331 0.000158342 -0.000410304 0.000145085 0.000145097 -0.000330925 0 0.000147667 -0.000329995 0 0.000135153 -0.000253013
          0 0 -0.000259038 -0.000147627 0 -0.000329922 0 0 -0.000183944 -0.000135112 0 -0.000252942
          -0.000168289 0 -0.000442657 -0.000157201 0 -0.000365535 -0.000128534 0 -0.000513982 -0.000123423 0 -0.000439027
          -5.64369e-05 0 -0.000534859 -5.76972e-05 0 -0.000459516 -8.59866e-06 0 -0.000502981 -1.12071e-05 0 -0.00042487
          8.68366e-06 0 -0.000502995 1.12949e-05 0 -0.000424883 5.65192e-05 0 -0.000534896 5.77817e-05 0 -0.000459553
          0.000128606 0 -0.000514036 0.000123496 0 -0.000439081 0.000168342 0 -0.000442723 0.000157256 0 -0.000365599
          0.000147655 0 -0.000329996 0.00013514 0 -0.000253014 0 0 -0.000259118 0 0 -0.000184021
          0 0 -0.000142422 -0.000123576 0 -0.000205304 0 -0.000123563 -0.000205305 -0.000133606 -0.000133592 -0.000275277
          -0.00014653 0 -0.00031423 -0.000155923 -0.000153016 -0.000398144 -0.000118915 0 -0.000390027 -0.000123971 -0.000167467 -0.000484802
          -5.86039e-05 0 -0.000410224 -5.88594e-05 -0.00017278 -0.000509623 -1.28211e-05 0 -0.000373437 -1.20163e-05 -0.000172231 -0.000472977
          1.28924e-05 0 -0.000373443 1.20871e-05 -0.000172232 -0.000472983 5.86725e-05 0 -0.000410237 5.8928e-05 -0.00017278 -0.000509636
          0.000118974 0 -0.000390042 0.000124031 -0.000167467 -0.000484818 0.000146573 0 -0.000314249 0.000155966 -0.000153015 -0.000398164
          0.000123598 0 -0.000205327 0.000133628 -0.000133591 -0.0002753 0 0 -0.000142447 0 -0.000123561 -0.00020533
          0 -0.000146505 -0.000314232 -0.000153029 -0.000155898 -0.000398146 -0.000173906 -0.000173881 -0.000547979 -0.000130802 -0.000184245 -0.000653707
          -5.42439e-05 -0.000181148 -0.000682517 -7.77148e-06 -0.000172836 -0.000641081 7.83882e-06 -0.000172837 -0.000641088 5.43103e-05 -0.000181149 -0.000682533
          0.000130861 -0.000184245 -0.000653726 0.000173948 -0.000173881 -0.000548001 0.000153051 -0.000155897 -0.000398171 0 -0.000146502 -0.00031426
          0 -0.00011888 -0.000390033 -0.00016748 -0.000123936 -0.000484808 -0.000184268 -0.000130768 -0.00065371 -0.000125427 -0.000125394 -0.000766213
          -3.6117e-05 -0.000104991 -0.000782745 2.65249e-06 -8.47519e-05 -0.000723543 -2.59069e-06 -8.47532e-05 -0.000723553 3.618e-05 -0.000104994 -0.000782767
          0.000125485 -0.000125397 -0.000766238 0.000184311 -0.000130769 -0.000653738 0.000167501 -0.000123936 -0.000484838 0 -0.000118878 -0.000390066
          0 -5.85622e-05 -0.000410237 -0.000172792 -5.88179e-05 -0.000509634 -0.000181171 -5.42032e-05 -0.000682527 -0.000105023 -3.60776e-05 -0.000782752
          -5.86727e-06 -5.82965e-06 -0.000768176 1.7759e-05 1.92863e-05 -0.000679205 -1.77029e-05 1.92849e-05 -0.000679217 5.92713e-06 -5.8329e-06 -0.000768205
          0.000105079 -3.60807e-05 -0.000782786 0.000181213 -5.42048e-05 -0.000682563 0.000172814 -5.88181e-05 -0.000509673 0 -5.85613e-05 -0.000410278
          0 -1.27759e-05 -0.000373458 -0.000172242 -1.19713e-05 -0.000472997 -0.000172857 -7.72742e-06 -0.000641099 -8.47817e-05 2.69517e-06 -0.000723558
          1.92505e-05 1.77999e-05 -0.000679213 2.96311e-05 2.96703e-05 -0.000564986 -2.95776e-05 2.96698e-05 -0.000565001 -1.91915e-05 1.77989e-05 -0.00067925
          8.48389e-05 2.69435e-06 -0.000723602 0.000172901 -7.72761e-06 -0.000641146 0.000172265 -1.19709e-05 -0.000473046 0 -1.27746e-05 -0.000373509
          0 1.29378e-05 -0.000373474 -0.000172242 1.21322e-05 -0.000473013 -0.000172857 7.88308e-06 -0.000641117 -8.47818e-05 -2.54767e-06 -0.000723577
          1.92505e-05 -1.76616e-05 -0.000679236 2.96321e-05 -2.9538e-05 -0.000565011 -2.95752e-05 -2.95368e-05 -0.000565028 -1.91884e-05 -1.76588e-05 -0.000679277
          8.48416e-05 -2.54465e-06 -0.000723627 0.000172903 7.88572e-06 -0.000641169 0.000172266 1.21345e-05 -0.000473069 0 1.29405e-05 -0.000373533
          0 5.87149e-05 -0.000410277 -0.000172791 5.89701e-05 -0.000509676 -0.000181169 5.43518e-05 -0.000682571 -0.000105022 3.62204e-05 -0.000782802
          -5.86645e-06 5.96597e-06 -0.000768234 1.7762e-05 -1.91541e-05 -0.000679271 -1.76965e-05 -1.91521e-05 -0.000679287 5.93507e-06 5.97073e-06 -0.000768274
          0.000105086 3.62254e-05 -0.000782852 0.000181218 5.43556e-05 -0.000682627 0.000172816 5.8973e-05 -0.000509736 0 5.87179e-05 -0.000410341
          0 0.00011901 -0.00039009 -0.000167477 0.000124067 -0.000484866 -0.000184265 0.000130896 -0.000653771 -0.000125424 0.000125519 -0.00076628
          -3.61138e-05 0.000105112 -0.000782822 2.65775e-06 8.4871e-05 -0.00072363 -2.58211e-06 8.48728e-05 -0.000723645 3.61898e-05 0.000105117 -0.00078286
          0.000125493 0.000125523 -0.00076633 0.000184316 0.000130899 -0.000653829 0.000167504 0.000124069 -0.000484929 0 0.000119012 -0.000390158
          0 0.000146599 -0.000314301 -0.000153025 0.000155993 -0.000398215 -0.0001739 0.000173974 -0.00054805 -0.000130796 0.000184336 -0.000653784
          -5.4238e-05 0.000181237 -0.000682604 -7.76432e-06 0.000172925 -0.000641178 7.84815e-06 0.000172926 -0.000641193 5.432e-05 0.00018124 -0.000682641
          0.000130868 0.000184339 -0.000653835 0.000173953 0.000173976 -0.000548111 0.000153054 0.000155994 -0.000398283 0 0.000146601 -0.000314372
          0 0.000123612 -0.00020538 -0.000133601 0.000133642 -0.000275353 -0.000155916 0.000153065 -0.000398224 -0.000123963 0.000167515 -0.000484887
          -5.88515e-05 0.000172827 -0.000509717 -1.20078e-05 0.000172278 -0.000473082 1.20967e-05 0.000172278 -0.000473096 5.89371e-05 0.000172828 -0.000509753
          0.000124038 0.000167516 -0.000484938 0.000155971 0.000153066 -0.000398286 0.000133631 0.000133643 -0.000275423 0 0.000123613 -0.000205455
          0 0 -0.000142502 -0.000123571 0 -0.000205385 -0.000146522 0 -0.000314314 -0.000118906 0 -0.000390116
          -5.8595e-05 0 -0.000410323 -1.28118e-05 0 -0.000373547 1.29025e-05 0 -0.000373561 5.86817e-05 0 -0.000410359
          0.000118981 0 -0.000390168 0.000146578 0 -0.000314377 0.000123601 0 -0.000205456 0 0 -0.000142577
          0 0 -0.000117359 -0.000112718 0 -0.000173804 0 -0.000112704 -0.000173805 -0.00012289 -0.000122876 -0.000235386
          -0.000136678 0 -0.000277741 -0.000146218 -0.000142588 -0.000350663 -0.000114792 0 -0.000355009 -0.000120125 -0.000157462 -0.000438023
          -5.9236e-05 0 -0.000375488 -5.95616e-05 -0.000163121 -0.000462815 -1.36759e-05 0 -0.000336815 -1.27973e-05 -0.000162569 -0.00042391
          1.37482e-05 0 -0.00033682 1.28691e-05 -0.000162569 -0.000423916 5.93053e-05 0 -0.0003755 5.9631e-05 -0.000163121 -0.000462828
          0.000114852 0 -0.000355024 0.000120184 -0.000157461 -0.000438039 0.000136722 0 -0.000277759 0.000146261 -0.000142587 -0.000350682
          0.00011274 0 -0.000173826 0.000122912 -0.000122875 -0.000235408 0 0 -0.000117382 0 -0.000112702 -0.000173829
          0 -0.000136653 -0.000277743 -0.000142601 -0.000146192 -0.000350665 -0.000164677 -0.000164652 -0.000489965 -0.000127706 -0.000175821 -0.000596227
          -5.48848e-05 -0.000173066 -0.000624682 -8.18762e-06 -0.000164332 -0.000579908 8.25607e-06 -0.000164333 -0.000579915 5.49522e-05 -0.000173068 -0.000624698
          0.000127765 -0.000175821 -0.000596245 0.00016472 -0.000164651 -0.000489986 0.000142624 -0.00014619 -0.00035069 0 -0.00013665 -0.00027777
          0 -0.000114756 -0.000355014 -0.000157474 -0.000120089 -0.000438028 -0.000175845 -0.000127671 -0.00059623 -0.000122894 -0.00012286 -0.000709994
          -3.56098e-05 -0.000101529 -0.000724859 3.30817e-06 -7.94923e-05 -0.000659649 -3.24516e-06 -7.94936e-05 -0.000659659 3.56741e-05 -0.000101532 -0.000724881
          0.000122952 -0.000122862 -0.000710019 0.000175887 -0.000127671 -0.000596257 0.000157496 -0.000120088 -0.000438058 0 -0.000114754 -0.000355046
          0 -5.91934e-05 -0.000375499 -0.000163133 -5.95193e-05 -0.000462826 -0.000173089 -5.48433e-05 -0.000624691 -0.000101561 -3.55696e-05 -0.000724865
          -2.27042e-06 -2.23194e-06 -0.000704178 2.0389e-05 2.61508e-05 -0.000604048 -2.03318e-05 2.61493e-05 -0.000604061 2.33177e-06 -2.23509e-06 -0.000704208
          0.000101619 -3.55722e-05 -0.000724899 0.000173132 -5.48442e-05 -0.000624727 0.000163155 -5.95186e-05 -0.000462864 0 -5.91916e-05 -0.000375539
          0 -1.36296e-05 -0.000336835 -0.00016258 -1.27512e-05 -0.00042393 -0.000164354 -8.14247e-06 -0.000579926 -7.95227e-05 3.35191e-06 -0.000659663
          2.61141e-05 2.04311e-05 -0.000604056 3.40831e-05 3.41233e-05 -0.000473701 -3.40284e-05 3.4123e-05 -0.000473718 -2.60534e-05 2.04303e-05 -0.000604095
          7.95813e-05 3.35161e-06 -0.000659707 0.000164398 -8.14195e-06 -0.000579971 0.000162603 -1.27499e-05 -0.000423977 0 -1.36275e-05 -0.000336885
          0 1.37948e-05 -0.00033685 -0.000162579 1.29154e-05 -0.000423946 -0.000164353 8.30146e-06 -0.000579943 -7.95228e-05 -3.20103e-06 -0.000659682
          2.6114e-05 -2.02893e-05 -0.000604079 3.40842e-05 -3.39876e-05 -0.000473728 -3.40257e-05 -3.39862e-05 -0.000473746 -2.605e-05 -2.0286e-05 -0.000604121
          7.95842e-05 -3.19727e-06 -0.000659732 0.0001644 8.30485e-06 -0.000579995 0.000162604 1.29184e-05 -0.000424 0 1.37981e-05 -0.000336908
          0 5.93488e-05 -0.000375539 -0.000163132 5.96741e-05 -0.000462867 -0.000173088 5.49946e-05 -0.000624736 -0.00010156 3.57154e-05 -0.000724914
          -2.26951e-06 2.37163e-06 -0.000704236 2.03924e-05 -2.6015e-05 -0.000604114 -2.03248e-05 -2.60127e-05 -0.000604131 2.34025e-06 2.37696e-06 -0.000704276
          0.000101626 3.57209e-05 -0.000724964 0.000173137 5.4999e-05 -0.00062479 0.000163157 5.96775e-05 -0.000462926 0 5.93522e-05 -0.000375601
          0 0.000114888 -0.00035507 -0.000157471 0.000120221 -0.000438085 -0.000175841 0.000127801 -0.00059629 -0.00012289 0.000122987 -0.00071006
          -3.56062e-05 0.000101652 -0.000724935 3.31397e-06 7.96141e-05 -0.000659735 -3.23587e-06 7.96162e-05 -0.000659749 3.56844e-05 0.000101657 -0.000724972
          0.00012296 0.000122991 -0.000710109 0.000175893 0.000127804 -0.000596346 0.000157499 0.000120224 -0.000438147 0 0.000114891 -0.000355136
          0 0.000136748 -0.000277809 -0.000142597 0.000146288 -0.000350732 -0.000164671 0.000164747 -0.000490034 -0.000127699 0.000175913 -0.000596302
          -5.48781e-05 0.000173157 -0.000624767 -8.17966e-06 0.000164422 -0.000580003 8.26616e-06 0.000164423 -0.000580018 5.49623e-05 0.00017316 -0.000624803
          0.000127773 0.000175916 -0.000596352 0.000164725 0.000164749 -0.000490093 0.000142627 0.00014629 -0.000350798 0 0.00013675 -0.000277879
          0 0.000112755 -0.000173878 -0.000122885 0.000122926 -0.00023546 -0.00014621 0.000142638 -0.00035074 -0.000120116 0.00015751 -0.000438106
          -5.95528e-05 0.000163168 -0.000462906 -1.27879e-05 0.000162616 -0.000424012 1.28795e-05 0.000162616 -0.000424026 5.96406e-05 0.00016317 -0.000462942
          0.000120192 0.000157512 -0.000438155 0.000146266 0.000142639 -0.000350801 0.000122915 0.000122928 -0.000235528 0 0.000112756 -0.00017395
          0 0 -0.000117436 -0.000112713 0 -0.000173882 -0.00013667 0 -0.000277822 -0.000114782 0 -0.000355095
          -5.9226e-05 0 -0.000375583 -1.36656e-05 0 -0.000336921 1.37591e-05 0 -0.000336935 5.9315e-05 0 -0.000375619
          0.000114859 0 -0.000355146 0.000136727 0 -0.000277884 0.000112743 0 -0.000173952 0 0 -0.000117509
          0 0 -0.000100764 -0.000102661 0 -0.000151541 0 -0.000102648 -0.000151541 -0.000112812 -0.000112799 -0.000205796
          -0.000127667 0 -0.000250019 -0.000137557 -0.00013284 -0.000313114 -0.000111058 0 -0.000327668 -0.000116899 -0.000148571 -0.000399839
          -5.96401e-05 0 -0.000349063 -6.00627e-05 -0.000154836 -0.000425128 -1.39968e-05 0 -0.000308576 -1.29803e-05 -0.000154242 -0.000383893
          1.40701e-05 0 -0.000308581 1.3053e-05 -0.000154242 -0.000383898 5.97102e-05 0 -0.000349075 6.01328e-05 -0.000154836 -0.000425141
          0.000111118 0 -0.000327682 0.000116959 -0.000148571 -0.000399854 0.000127711 0 -0.000250036 0.000137601 -0.000132839 -0.000313132
          0.000102684 0 -0.000151561 0.000112835 -0.000112797 -0.000205817 0 0 -0.000100786 0 -0.000102646 -0.000151564
          0 -0.000127641 -0.000250021 -0.000132853 -0.000137531 -0.000313116 -0.000157178 -0.000157153 -0.000441229 -0.000125785 -0.00016993 -0.000546392
          -5.51888e-05 -0.000167679 -0.000575013 -7.70819e-06 -0.000158126 -0.000526497 7.7776e-06 -0.000158127 -0.000526504 5.52571e-05 -0.00016768 -0.000575029
          0.000125844 -0.00016993 -0.00054641 0.000157221 -0.000157151 -0.00044125 0.000132876 -0.000137529 -0.000313139 0 -0.000127638 -0.000250047
          0 -0.000111022 -0.000327673 -0.000148584 -0.000116863 -0.000399844 -0.000169955 -0.00012575 -0.000546396 -0.000121755 -0.000121721 -0.000660083
          -3.37711e-05 -9.85261e-05 -0.000673817 5.68286e-06 -7.327e-05 -0.000601374 -5.61893e-06 -7.32714e-05 -0.000601384 3.38366e-05 -9.85287e-05 -0.000673839
          0.000121814 -0.000121722 -0.000660107 0.000169998 -0.000125749 -0.000546422 0.000148606 -0.000116861 -0.000399872 0 -0.000111018 -0.000327704
          0 -5.95967e-05 -0.000349074 -0.000154848 -6.00195e-05 -0.000425138 -0.000167702 -5.51465e-05 -0.000575022 -9.85587e-05 -3.37301e-05 -0.000673823
          5.02291e-06 5.06221e-06 -0.000646347 2.61978e-05 3.91141e-05 -0.000531792 -2.61398e-05 3.91124e-05 -0.000531806 -4.96002e-06 5.05888e-06 -0.000646379
          9.86176e-05 -3.37324e-05 -0.000673857 0.000167746 -5.51467e-05 -0.000575057 0.00015487 -6.0018e-05 -0.000425175 0 -5.9594e-05 -0.000349113
          0 -1.39495e-05 -0.000308595 -0.000154254 -1.29331e-05 -0.000383911 -0.000158148 -7.66199e-06 -0.000526514 -7.3301e-05 5.72763e-06 -0.000601387
          3.90765e-05 2.62408e-05 -0.0005318 4.30383e-05 4.30796e-05 -0.000379751 -4.2983e-05 4.30791e-05 -0.000379768 -3.9014e-05 2.62402e-05 -0.00053184
          7.33613e-05 5.72772e-06 -0.000601432 0.000158193 -7.66086e-06 -0.000526559 0.000154277 -1.29311e-05 -0.000383958 0 -1.39465e-05 -0.000308643
          0 1.41177e-05 -0.00030861 -0.000154253 1.31004e-05 -0.000383927 -0.000158148 7.8241e-06 -0.000526531 -7.33011e-05 -5.57374e-06 -0.000601407
          3.90763e-05 -2.60962e-05 -0.000531824 4.30393e-05 -4.29411e-05 -0.000379778 -4.298e-05 -4.29394e-05 -0.000379796 -3.90103e-05 -2.60921e-05 -0.000531867
          7.33643e-05 -5.56909e-06 -0.000601457 0.000158195 7.82829e-06 -0.000526582 0.000154278 1.31042e-05 -0.00038398 0 1.41218e-05 -0.000308666
          0 5.97546e-05 -0.000349113 -0.000154846 6.01768e-05 -0.000425178 -0.0001677 5.53004e-05 -0.000575065 -9.85577e-05 3.38788e-05 -0.000673872
          5.02362e-06 -4.91917e-06 -0.000646406 2.62012e-05 -3.89747e-05 -0.00053186 -2.61321e-05 -3.8972e-05 -0.000531877 -4.95075e-06 -4.913e-06 -0.000646446
          9.8625e-05 3.38852e-05 -0.000673921 0.00016775 5.53054e-05 -0.000575119 0.000154873 6.01808e-05 -0.000425235 0 5.97584e-05 -0.000349173
          0 0.000111156 -0.000327727 -0.000148581 0.000116996 -0.000399899 -0.00016995 0.000125881 -0.000546454 -0.000121751 0.00012185 -0.000660147
          -3.37673e-05 9.86523e-05 -0.000673892 5.68907e-06 7.33948e-05 -0.000601459 -5.60879e-06 7.33971e-05 -0.000601474 3.38476e-05 9.86572e-05 -0.000673929
          0.000121822 0.000121854 -0.000660195 0.000170003 0.000125885 -0.000546508 0.000148609 0.000116999 -0.000399959 0 0.000111158 -0.000327791
          0 0.000127738 -0.000250085 -0.000132849 0.000137628 -0.000313181 -0.000157171 0.000157248 -0.000441296 -0.000125777 0.000170024 -0.000546466
          -5.51815e-05 0.000167771 -0.000575096 -7.69953e-06 0.000158218 -0.00052659 7.78851e-06 0.000158219 -0.000526604 5.52677e-05 0.000167774 -0.000575131
          0.000125852 0.000170027 -0.000546514 0.000157227 0.000157251 -0.000441354 0.000132879 0.00013763 -0.000313244 0 0.00012774 -0.000250152
          0 0.000102699 -0.000151612 -0.000112808 0.00011285 -0.000205868 -0.000137549 0.00013289 -0.000313188 -0.000116889 0.00014862 -0.000399919
          -6.00529e-05 0.000154884 -0.000425216 -1.297e-05 0.00015429 -0.000383992 1.30642e-05 0.000154291 -0.000384006 6.01429e-05 0.000154885 -0.000425251
          0.000116967 0.000148622 -0.000399967 0.000137606 0.000132892 -0.000313247 0.000112838 0.000112851 -0.000205934 0 0.0001027 -0.000151681
          0 0 -0.000100838 -0.000102656 0 -0.000151616 -0.000127659 0 -0.000250097 -0.000111047 0 -0.000327752
          -5.96291e-05 0 -0.000349155 -1.39857e-05 0 -0.000308679 1.40817e-05 0 -0.000308693 5.97203e-05 0 -0.000349191
          0.000111125 0 -0.0003278 0.000127716 0 -0.000250157 0.000102687 0 -0.000151683 0 0 -0.000100909
          0 0 -8.88422e-05 -9.35752e-05 0 -0.000134907 0 -9.35615e-05 -0.000134907 -0.000103515 -0.000103501 -0.000183159
          -0.000119419 0 -0.000227824 -0.000129693 -0.000123716 -0.000282726 -0.000107705 0 -0.000304752 -0.000114224 -0.00014051 -0.00036767
          -5.98867e-05 0 -0.000327658 -6.04211e-05 -0.000147564 -0.000394039 -1.39338e-05 0 -0.000285363 -1.27025e-05 -0.000146868 -0.00035035
          1.40079e-05 0 -0.000285368 1.27762e-05 -0.000146868 -0.000350355 5.99574e-05 0 -0.00032767 6.0492e-05 -0.000147564 -0.000394052
          0.000107766 0 -0.000304766 0.000114285 -0.000140509 -0.000367685 0.000119463 0 -0.00022784 0.000129737 -0.000123714 -0.000282743
          9.35985e-05 0 -0.000134926 0.000103538 -0.000103499 -0.000183178 0 0 -8.88635e-05 0 -9.35595e-05 -0.000134929
          0 -0.000119392 -0.000227826 -0.000123729 -0.000129667 -0.000282728 -0.000150847 -0.000150821 -0.000399966 -0.000124956 -0.000165913 -0.000502885
          -5.52555e-05 -0.000164426 -0.000532447 -6.44524e-06 -0.000153699 -0.000479714 6.51548e-06 -0.000153699 -0.000479721 5.53247e-05 -0.000164427 -0.000532462
          0.000125016 -0.000165913 -0.000502902 0.00015089 -0.000150819 -0.000399985 0.000123752 -0.000129664 -0.000282751 0 -0.000119389 -0.000227851
          0 -0.000107669 -0.000304758 -0.000140523 -0.000114188 -0.000367675 -0.000165938 -0.00012492 -0.000502888 -0.000122153 -0.000122119 -0.000615965
          -3.0774e-05 -9.6323e-05 -0.000629612 9.75078e-06 -6.63723e-05 -0.000548442 -9.68618e-06 -6.63738e-05 -0.000548452 3.08409e-05 -9.63257e-05 -0.000629635
          0.000122213 -0.000122119 -0.000615989 0.000165981 -0.000124919 -0.000502913 0.000140545 -0.000114185 -0.000367703 0 -0.000107665 -0.000304787
          0 -5.98424e-05 -0.000327669 -0.000147576 -6.03771e-05 -0.00039405 -0.00016445 -5.52124e-05 -0.000532455 -9.63562e-05 -3.07323e-05 -0.000629618
          1.60559e-05 1.6096e-05 -0.000594978 3.54333e-05 5.86569e-05 -0.000461658 -3.53752e-05 5.86549e-05 -0.000461672 -1.59914e-05 1.60922e-05 -0.00059501
          9.64165e-05 -3.07345e-05 -0.000629652 0.000164493 -5.52121e-05 -0.000532489 0.000147599 -6.03748e-05 -0.000394085 0 -5.98389e-05 -0.000327706
          0 -1.38855e-05 -0.000285382 -0.000146879 -1.26545e-05 -0.000350368 -0.000153721 -6.39804e-06 -0.00047973 -6.64039e-05 9.79655e-06 -0.000548455
          5.86185e-05 3.54774e-05 -0.000461665 5.70733e-05 5.71157e-05 -0.000280156 -5.70183e-05 5.71151e-05 -0.000280175 -5.85541e-05 3.54766e-05 -0.000461707
          6.64662e-05 9.79687e-06 -0.0005485 0.000153767 -6.39637e-06 -0.000479774 0.000146903 -1.26517e-05 -0.000350413 0 -1.38818e-05 -0.000285428
          0 1.40566e-05 -0.000285397 -0.000146879 1.28247e-05 -0.000350383 -0.000153721 6.56306e-06 -0.000479747 -6.64041e-05 -9.63995e-06 -0.000548475
          5.8618e-05 -3.53305e-05 -0.000461689 5.70743e-05 -5.69753e-05 -0.000280184 -5.70149e-05 -5.69732e-05 -0.000280204 -5.85498e-05 -3.53254e-05 -0.000461734
          6.64695e-05 -9.63426e-06 -0.000548524 0.000153769 6.56811e-06 -0.000479797 0.000146904 1.28292e-05 -0.000350435 0 1.40615e-05 -0.00028545
          0 6.00027e-05 -0.000327707 -0.000147575 6.05369e-05 -0.000394089 -0.000164448 5.53689e-05 -0.000532498 -9.63552e-05 3.0884e-05 -0.000629666