<?xml version="1.0"?>
<VTKFile type="UnstructuredGrid" version="0.1" byte_order="LittleEndian">
  <UnstructuredGrid>
    <Piece NumberOfCells="400" NumberOfPoints="235">
      <CellData Scalars="ReservoirCell">
        <DataArray type="Float32" Name="ReservoirCell" NumberOfComponents="1" format="ascii">
          1996 1996 1996 1995 1995 1996 1996 1996 1996 1996 1996 1996
          1995 1996 1996 1996 1996 1996 1996 1996 1996 1996 1996 1875
          1996 1996 1996 1996 1996 1996 1996 1996 1996 1996 1875 1875
          1875 1875 1875 1996 1996 1996 1996 1996 1996 1996 1996 1996
          1996 1875 1875 1875 1875 1875 1875 1875 1875 1875 1996 1996
          1996 1996 1996 1996 1996 1996 1996 1996 1875 1875 1875 1875
          1875 1875 1875 1875 1875 1875 1754 1754 1754 1996 1996 1996
          1996 1996 1996 1996 1996 1996 1996 1875 1875 1875 1875 1875
          1875 1875 1875 1875 1875 1754 1754 1754 1754 1754 1754 1754
          1996 1996 1996 1996 1996 1996 1996 1996 1996 1996 1875 1875
          1875 1875 1875 1875 1875 1875 1875 1875 1754 1754 1754 1754
          1754 1754 1754 1754 1754 1754 1996 1996 1996 1996 1996 1996
          1996 1996 1996 1996 1875 1875 1875 1875 1875 1875 1875 1875
          1875 1875 1754 1754 1754 1754 1754 1754 1754 1754 1754 1754
          1996 1996 1996 1996 1996 1996 1996 1996 1996 1996 1875 1875
          1875 1875 1875 1875 1875 1875 1875 1875 1754 1754 1754 1754
          1754 1754 1754 1754 1754 1754 1996 1996 1996 1996 1996 1996
          1996 1996 1996 1996 1875 1875 1875 1875 1875 1875 1875 1875
          1875 1875 1754 1754 1754 1754 1754 1754 1754 1754 1754 1754
          1996 1996 1996 1996 1996 1996 1996 1996 1996 1996 1875 1875
          1875 1875 1875 1875 1875 1875 1875 1875 1754 1754 1754 1754
          1754 1754 1754 1754 1754 1754 1996 1996 1996 1996 1996 1996
          1996 1996 1996 1996 1875 1875 1875 1875 1875 1875 1875 1875
          1875 1875 1754 1754 1754 1754 1754 1754 1754 1754 1754 1754
          1997 1996 1996 1996 1996 1996 1996 1996 1875 1875 1875 1875
          1875 1875 1875 1875 1875 1875 1754 1754 1754 1754 1754 1754
          1754 1754 1754 1754 1633 1633 1997 1997 1996 1996 1996 1875
          1875 1875 1875 1875 1875 1875 1875 1875 1875 1754 1754 1754
          1754 1754 1754 1754 1754 1754 1754 1633 1633 1875 1875 1875
          1875 1875 1875 1875 1875 1875 1754 1754 1754 1754 1754 1754
          1754 1754 1754 1754 1875 1875 1875 1875 1875 1754 1754 1754
          1754 1754 1754 1754 1754 1754 1754 1875 1754 1754 1754 1754
          1754 1754 1754 1754 1754 1754 1754 1754 1754 1754 1754 1754
          1754 1754 1754 1754
        </DataArray>
        <DataArray type="Float32" Name="ReservoirPerm" NumberOfComponents="1" format="ascii">
          9.86923e-13 9.86923e-13 9.86923e-13 9.86923e-13 9.86923e-13 9.86923e-13 9.86923e-13 9.86923e-13 9.86923e-13 9.86923e-13 9.86923e-13 9.86923e-13
          9.86923e-13 9.86923e-13 9.86923e-13 9.86923e-13 9.86923e-13 9.86923e-13 9.86923e-13 9.86923e-13 9.86923e-13 9.86923e-13 9.86923e-13 9.86923e-13
          9.86923e-13 9.86923e-13 9.86923e-13 9.86923e-13 9.86923e-13 9.86923e-13 9.86923e-13 9.86923e-13 9.86923e-13 9.86923e-13 9.86923e-13 9.86923e-13
          9.86923e-13 9.86923e-13 9.86923e-13 9.86923e-13 9.86923e-13 9.86923e-13 9.86923e-13 9.86923e-13 9.86923e-13 9.86923e-13 9.86923e-13 9.86923e-13
          9.86923e-13 9.86923e-13 9.86923e-13 9.86923e-13 9.86923e-13 9.86923e-13 9.86923e-13 9.86923e-13 9.86923e-13 9.86923e-13 9.86923e-13 9.86923e-13
          9.86923e-13 9.86923e-13 9.86923e-13 9.86923e-13 9.86923e-13 9.86923e-13 9.86923e-13 9.86923e-13 9.86923e-13 9.86923e-13 9.86923e-13 9.86923e-13
          9.86923e-13 9.86923e-13 9.86923e-13 9.86923e-13 9.86923e-13 9.86923e-13 9.86923e-13 9.86923e-13 9.86923e-13 9.86923e-13 9.86923e-13 9.86923e-13
          9.86923e-13 9.86923e-13 9.86923e-13 9.86923e-13 9.86923e-13 9.86923e-13 9.86923e-13 9.86923e-13 9.86923e-13 9.86923e-13 9.86923e-13 9.86923e-13
          9.86923e-13 9.86923e-13 9.86923e-13 9.86923e-13 9.86923e-13 9.86923e-13 9.86923e-13 9.86923e-13 9.86923e-13 9.86923e-13 9.86923e-13 9.86923e-13
          9.86923e-13 9.86923e-13 9.86923e-13 9.86923e-13 9.86923e-13 9.86923e-13 9.86923e-13 9.86923e-13 9.86923e-13 9.86923e-13 9.86923e-13 9.86923e-13
          9.86923e-13 9.86923e-13 9.86923e-13 9.86923e-13 9.86923e-13 9.86923e-13 9.86923e-13 9.86923e-13 9.86923e-13 9.86923e-13 9.86923e-13 9.86923e-13
          9.86923e-13 9.86923e-13 9.86923e-13 9.86923e-13 9.86923e-13 9.86923e-13 9.86923e-13 9.86923e-13 9.86923e-13 9.86923e-13 9.86923e-13 9.86923e-13
          9.86923e-13 9.86923e-13 9.86923e-13 9.86923e-13 9.86923e-13 9.86923e-13 9.86923e-13 9.86923e-13 9.86923e-13 9.86923e-13 9.86923e-13 9.86923e-13
          9.86923e-13 9.86923e-13 9.86923e-13 9.86923e-13 9.86923e-13 9.86923e-13 9.86923e-13 9.86923e-13 9.86923e-13 9.86923e-13 9.86923e-13 9.86923e-13
          9.86923e-13 9.86923e-13 9.86923e-13 9.86923e-13 9.86923e-13 9.86923e-13 9.86923e-13 9.86923e-13 9.86923e-13 9.86923e-13 9.86923e-13 9.86923e-13
          9.86923e-13 9.86923e-13 9.86923e-13 9.86923e-13 9.86923e-13 9.86923e-13 9.86923e-13 9.86923e-13 9.86923e-13 9.86923e-13 9.86923e-13 9.86923e-13
          9.86923e-13 9.86923e-13 9.86923e-13 9.86923e-13 9.86923e-13 9.86923e-13 9.86923e-13 9.86923e-13 9.86923e-13 9.86923e-13 9.86923e-13 9.86923e-13
          9.86923e-13 9.86923e-13 9.86923e-13 9.86923e-13 9.86923e-13 9.86923e-13 9.86923e-13 9.86923e-13 9.86923e-13 9.86923e-13 9.86923e-13 9.86923e-13
          9.86923e-13 9.86923e-13 9.86923e-13 9.86923e-13 9.86923e-13 9.86923e-13 9.86923e-13 9.86923e-13 9.86923e-13 9.86923e-13 9.86923e-13 9.86923e-13
          9.86923e-13 9.86923e-13 9.86923e-13 9.86923e-13 9.86923e-13 9.86923e-13 9.86923e-13 9.86923e-13 9.86923e-13 9.86923e-13 9.86923e-13 9.86923e-13
          9.86923e-13 9.86923e-13 9.86923e-13 9.86923e-13 9.86923e-13 9.86923e-13 9.86923e-13 9.86923e-13 9.86923e-13 9.86923e-13 9.86923e-13 9.86923e-13
          9.86923e-13 9.86923e-13 9.86923e-13 9.86923e-13 9.86923e-13 9.86923e-13 9.86923e-13 9.86923e-13 9.86923e-13 9.86923e-13 9.86923e-13 9.86923e-13
          9.86923e-13 9.86923e-13 9.86923e-13 9.86923e-13 9.86923e-13 9.86923e-13 9.86923e-13 9.86923e-13 9.86923e-13 9.86923e-13 9.86923e-13 9.86923e-13
          9.86923e-13 9.86923e-13 9.86923e-13 9.86923e-13 9.86923e-13 9.86923e-13 9.86923e-13 9.86923e-13 9.86923e-13 9.86923e-13 9.86923e-13 9.86923e-13
          9.86923e-13 9.86923e-13 9.86923e-13 9.86923e-13 9.86923e-13 9.86923e-13 9.86923e-13 9.86923e-13 9.86923e-13 9.86923e-13 9.86923e-13 9.86923e-13
          9.86923e-13 9.86923e-13 9.86923e-13 9.86923e-13 9.86923e-13 9.86923e-13 9.86923e-13 9.86923e-13 9.86923e-13 9.86923e-13 9.86923e-13 9.86923e-13
          9.86923e-13 9.86923e-13 9.86923e-13 9.86923e-13 9.86923e-13 9.86923e-13 9.86923e-13 9.86923e-13 9.86923e-13 9.86923e-13 9.86923e-13 9.86923e-13
          9.86923e-13 9.86923e-13 9.86923e-13 9.86923e-13 9.86923e-13 9.86923e-13 9.86923e-13 9.86923e-13 9.86923e-13 9.86923e-13 9.86923e-13 9.86923e-13
          9.86923e-13 9.86923e-13 9.86923e-13 9.86923e-13 9.86923e-13 9.86923e-13 9.86923e-13 9.86923e-13 9.86923e-13 9.86923e-13 9.86923e-13 9.86923e-13
          9.86923e-13 9.86923e-13 9.86923e-13 9.86923e-13 9.86923e-13 9.86923e-13 9.86923e-13 9.86923e-13 9.86923e-13 9.86923e-13 9.86923e-13 9.86923e-13
          9.86923e-13 9.86923e-13 9.86923e-13 9.86923e-13 9.86923e-13 9.86923e-13 9.86923e-13 9.86923e-13 9.86923e-13 9.86923e-13 9.86923e-13 9.86923e-13
          9.86923e-13 9.86923e-13 9.86923e-13 9.86923e-13 9.86923e-13 9.86923e-13 9.86923e-13 9.86923e-13 9.86923e-13 9.86923e-13 9.86923e-13 9.86923e-13
          9.86923e-13 9.86923e-13 9.86923e-13 9.86923e-13 9.86923e-13 9.86923e-13 9.86923e-13 9.86923e-13 9.86923e-13 9.86923e-13 9.86923e-13 9.86923e-13
          9.86923e-13 9.86923e-13 9.86923e-13 9.86923e-13
        </DataArray>
        <DataArray type="Float32" Name="ReservoirDist" NumberOfComponents="1" format="ascii">
          45.25 45.25 45.25 45.25 45.25 45.25 45.25 45.25 45.25 45.25 45.25 45.25
          45.25 45.25 45.25 45.25 45.25 45.25 45.25 45.25 45.25 45.25 45.25 45.25
          45.25 45.25 45.25 45.25 45.25 45.25 45.25 45.25 45.25 45.25 45.25 45.25
          45.25 45.25 45.25 45.25 45.25 45.25 45.25 45.25 45.25 45.25 45.25 45.25
          45.25 45.25 45.25 45.25 45.25 45.25 45.25 45.25 45.25 45.25 45.25 45.25
          45.25 45.25 45.25 45.25 45.25 45.25 45.25 45.25 45.25 45.25 45.25 45.25
          45.25 45.25 45.25 45.25 45.25 45.25 45.25 45.25 45.25 45.25 45.25 45.25
          45.25 45.25 45.25 45.25 45.25 45.25 45.25 45.25 45.25 45.25 45.25 45.25
          45.25 45.25 45.25 45.25 45.25 45.25 45.25 45.25 45.25 45.25 45.25 45.25
          45.25 45.25 45.25 45.25 45.25 45.25 45.25 45.25 45.25 45.25 45.25 45.25
          45.25 45.25 45.25 45.25 45.25 45.25 45.25 45.25 45.25 45.25 45.25 45.25
          45.25 45.25 45.25 45.25 45.25 45.25 45.25 45.25 45.25 45.25 45.25 45.25
          45.25 45.25 45.25 45.25 45.25 45.25 45.25 45.25 45.25 45.25 45.25 45.25
          45.25 45.25 45.25 45.25 45.25 45.25 45.25 45.25 45.25 45.25 45.25 45.25
          45.25 45.25 45.25 45.25 45.25 45.25 45.25 45.25 45.25 45.25 45.25 45.25
          45.25 45.25 45.25 45.25 45.25 45.25 45.25 45.25 45.25 45.25 45.25 45.25
          45.25 45.25 45.25 45.25 45.25 45.25 45.25 45.25 45.25 45.25 45.25 45.25
          45.25 45.25 45.25 45.25 45.25 45.25 45.25 45.25 45.25 45.25 45.25 45.25
          45.25 45.25 45.25 45.25 45.25 45.25 45.25 45.25 45.25 45.25 45.25 45.25
          45.25 45.25 45.25 45.25 45.25 45.25 45.25 45.25 45.25 45.25 45.25 45.25
          45.25 45.25 45.25 45.25 45.25 45.25 45.25 45.25 45.25 45.25 45.25 45.25
          45.25 45.25 45.25 45.25 45.25 45.25 45.25 45.25 45.25 45.25 45.25 45.25
          45.25 45.25 45.25 45.25 45.25 45.25 45.25 45.25 45.25 45.25 45.25 45.25
          45.25 45.25 45.25 45.25 45.25 45.25 45.25 45.25 45.25 45.25 45.25 45.25
          45.25 45.25 45.25 45.25 45.25 45.25 45.25 45.25 45.25 45.25 45.25 45.25
          45.25 45.25 45.25 45.25 45.25 45.25 45.25 45.25 45.25 45.25 45.25 45.25
          45.25 45.25 45.25 45.25 45.25 45.25 45.25 45.25 45.25 45.25 45.25 45.25
          45.25 45.25 45.25 45.25 45.25 45.25 45.25 45.25 45.25 45.25 45.25 45.25
          45.25 45.25 45.25 45.25 45.25 45.25 45.25 45.25 45.25 45.25 45.25 45.25
          45.25 45.25 45.25 45.25 45.25 45.25 45.25 45.25 45.25 45.25 45.25 45.25
          45.25 45.25 45.25 45.25 45.25 45.25 45.25 45.25 45.25 45.25 45.25 45.25
          45.25 45.25 45.25 45.25 45.25 45.25 45.25 45.25 45.25 45.25 45.25 45.25
          45.25 45.25 45.25 45.25 45.25 45.25 45.25 45.25 45.25 45.25 45.25 45.25
          45.25 45.25 45.25 45.25
        </DataArray>
        <DataArray type="Float32" Name="ReservoirCStres" NumberOfComponents="1" format="ascii">
          5.55e+06 5.55e+06 5.55e+06 5.55e+06 5.55e+06 5.55e+06 5.55e+06 5.55e+06 5.55e+06 5.55e+06 5.55e+06 5.55e+06
          5.55e+06 5.55e+06 5.55e+06 5.55e+06 5.55e+06 5.55e+06 5.55e+06 5.55e+06 5.55e+06 5.55e+06 5.55e+06 5.55e+06
          5.55e+06 5.55e+06 5.55e+06 5.55e+06 5.55e+06 5.55e+06 5.55e+06 5.55e+06 5.55e+06 5.55e+06 5.55e+06 5.55e+06
          5.55e+06 5.55e+06 5.55e+06 5.55e+06 5.55e+06 5.55e+06 5.55e+06 5.55e+06 5.55e+06 5.55e+06 5.55e+06 5.55e+06
          5.55e+06 5.55e+06 5.55e+06 5.55e+06 5.55e+06 5.55e+06 5.55e+06 5.55e+06 5.55e+06 5.55e+06 5.55e+06 5.55e+06
          5.55e+06 5.55e+06 5.55e+06 5.55e+06 5.55e+06 5.55e+06 5.55e+06 5.55e+06 5.55e+06 5.55e+06 5.55e+06 5.55e+06
          5.55e+06 5.55e+06 5.55e+06 5.55e+06 5.55e+06 5.55e+06 5.55e+06 5.55e+06 5.55e+06 5.55e+06 5.55e+06 5.55e+06
          5.55e+06 5.55e+06 5.55e+06 5.55e+06 5.55e+06 5.55e+06 5.55e+06 5.55e+06 5.55e+06 5.55e+06 5.55e+06 5.55e+06
          5.55e+06 5.55e+06 5.55e+06 5.55e+06 5.55e+06 5.55e+06 5.55e+06 5.55e+06 5.55e+06 5.55e+06 5.55e+06 5.55e+06
          5.55e+06 5.55e+06 5.55e+06 5.55e+06 5.55e+06 5.55e+06 5.55e+06 5.55e+06 5.55e+06 5.55e+06 5.55e+06 5.55e+06
          5.55e+06 5.55e+06 5.55e+06 5.55e+06 5.55e+06 5.55e+06 5.55e+06 5.55e+06 5.55e+06 5.55e+06 5.55e+06 5.55e+06
          5.55e+06 5.55e+06 5.55e+06 5.55e+06 5.55e+06 5.55e+06 5.55e+06 5.55e+06 5.55e+06 5.55e+06 5.55e+06 5.55e+06
          5.55e+06 5.55e+06 5.55e+06 5.55e+06 5.55e+06 5.55e+06 5.55e+06 5.55e+06 5.55e+06 5.55e+06 5.55e+06 5.55e+06
          5.55e+06 5.55e+06 5.55e+06 5.55e+06 5.55e+06 5.55e+06 5.55e+06 5.55e+06 5.55e+06 5.55e+06 5.55e+06 5.55e+06
          5.55e+06 5.55e+06 5.55e+06 5.55e+06 5.55e+06 5.55e+06 5.55e+06 5.55e+06 5.55e+06 5.55e+06 5.55e+06 5.55e+06
          5.55e+06 5.55e+06 5.55e+06 5.55e+06 5.55e+06 5.55e+06 5.55e+06 5.55e+06 5.55e+06 5.55e+06 5.55e+06 5.55e+06
          5.55e+06 5.55e+06 5.55e+06 5.55e+06 5.55e+06 5.55e+06 5.55e+06 5.55e+06 5.55e+06 5.55e+06 5.55e+06 5.55e+06
          5.55e+06 5.55e+06 5.55e+06 5.55e+06 5.55e+06 5.55e+06 5.55e+06 5.55e+06 5.55e+06 5.55e+06 5.55e+06 5.55e+06
          5.55e+06 5.55e+06 5.55e+06 5.55e+06 5.55e+06 5.55e+06 5.55e+06 5.55e+06 5.55e+06 5.55e+06 5.55e+06 5.55e+06
          5.55e+06 5.55e+06 5.55e+06 5.55e+06 5.55e+06 5.55e+06 5.55e+06 5.55e+06 5.55e+06 5.55e+06 5.55e+06 5.55e+06
          5.55e+06 5.55e+06 5.55e+06 5.55e+06 5.55e+06 5.55e+06 5.55e+06 5.55e+06 5.55e+06 5.55e+06 5.55e+06 5.55e+06
          5.55e+06 5.55e+06 5.55e+06 5.55e+06 5.55e+06 5.55e+06 5.55e+06 5.55e+06 5.55e+06 5.55e+06 5.55e+06 5.55e+06
          5.55e+06 5.55e+06 5.55e+06 5.55e+06 5.55e+06 5.55e+06 5.55e+06 5.55e+06 5.55e+06 5.55e+06 5.55e+06 5.55e+06
          5.55e+06 5.55e+06 5.55e+06 5.55e+06 5.55e+06 5.55e+06 5.55e+06 5.55e+06 5.55e+06 5.55e+06 5.55e+06 5.55e+06
          5.55e+06 5.55e+06 5.55e+06 5.55e+06 5.55e+06 5.55e+06 5.55e+06 5.55e+06 5.55e+06 5.55e+06 5.55e+06 5.55e+06
          5.55e+06 5.55e+06 5.55e+06 5.55e+06 5.55e+06 5.55e+06 5.55e+06 5.55e+06 5.55e+06 5.55e+06 5.55e+06 5.55e+06
          5.55e+06 5.55e+06 5.55e+06 5.55e+06 5.55e+06 5.55e+06 5.55e+06 5.55e+06 5.55e+06 5.55e+06 5.55e+06 5.55e+06
          5.55e+06 5.55e+06 5.55e+06 5.55e+06 5.55e+06 5.55e+06 5.55e+06 5.55e+06 5.55e+06 5.55e+06 5.55e+06 5.55e+06
          5.55e+06 5.55e+06 5.55e+06 5.55e+06 5.55e+06 5.55e+06 5.55e+06 5.55e+06 5.55e+06 5.55e+06 5.55e+06 5.55e+06
          5.55e+06 5.55e+06 5.55e+06 5.55e+06 5.55e+06 5.55e+06 5.55e+06 5.55e+06 5.55e+06 5.55e+06 5.55e+06 5.55e+06
          5.55e+06 5.55e+06 5.55e+06 5.55e+06 5.55e+06 5.55e+06 5.55e+06 5.55e+06 5.55e+06 5.55e+06 5.55e+06 5.55e+06
          5.55e+06 5.55e+06 5.55e+06 5.55e+06 5.55e+06 5.55e+06 5.55e+06 5.55e+06 5.55e+06 5.55e+06 5.55e+06 5.55e+06
          5.55e+06 5.55e+06 5.55e+06 5.55e+06 5.55e+06 5.55e+06 5.55e+06 5.55e+06 5.55e+06 5.55e+06 5.55e+06 5.55e+06
          5.55e+06 5.55e+06 5.55e+06 5.55e+06
        </DataArray>
        <DataArray type="Float32" Name="FracturePressure" NumberOfComponents="1" format="ascii">
          2.22888e+07 2.22888e+07 2.22888e+07 2.20192e+07 2.19442e+07 2.22888e+07 2.22888e+07 2.22888e+07 2.22888e+07 2.22888e+07 2.22888e+07 2.22888e+07
          2.20192e+07 2.22888e+07 2.22888e+07 2.22888e+07 2.22888e+07 2.22888e+07 2.22888e+07 2.22888e+07 2.22888e+07 2.22888e+07 2.22888e+07 2.22888e+07
          2.22888e+07 2.22888e+07 2.22888e+07 2.22888e+07 2.22888e+07 2.22888e+07 2.22888e+07 2.22888e+07 2.22888e+07 2.22888e+07 2.22888e+07 2.22888e+07
          2.22888e+07 2.22888e+07 2.22888e+07 2.22888e+07 2.22888e+07 2.22888e+07 2.22888e+07 2.22888e+07 2.22888e+07 2.22888e+07 2.22888e+07 2.22888e+07
          2.22888e+07 2.22888e+07 2.22888e+07 2.22888e+07 2.22888e+07 2.22888e+07 2.22888e+07 2.22888e+07 2.22888e+07 2.22888e+07 2.22888e+07 2.22888e+07
          2.22888e+07 2.22888e+07 2.22888e+07 2.22888e+07 2.22888e+07 2.22888e+07 2.22888e+07 2.22888e+07 2.22888e+07 2.22888e+07 2.22888e+07 2.22888e+07
          2.22888e+07 2.22888e+07 2.22888e+07 2.22888e+07 2.22888e+07 2.22888e+07 2.22888e+07 2.22888e+07 2.22888e+07 2.22888e+07 2.22888e+07 2.22888e+07
          2.22888e+07 2.22888e+07 2.22888e+07 2.22888e+07 2.22888e+07 2.22888e+07 2.22888e+07 2.22888e+07 2.22888e+07 2.22888e+07 2.22888e+07 2.22888e+07
          2.22888e+07 2.22888e+07 2.22888e+07 2.22888e+07 2.22888e+07 2.22888e+07 2.22888e+07 2.22888e+07 2.22888e+07 2.22888e+07 2.22888e+07 2.22888e+07
          2.22888e+07 2.22888e+07 2.22888e+07 2.22888e+07 2.22888e+07 2.22888e+07 2.22888e+07 2.22888e+07 2.22888e+07 2.22888e+07 2.22888e+07 2.22888e+07
          2.22888e+07 2.22888e+07 2.22888e+07 2.22888e+07 2.22888e+07 2.22888e+07 2.22888e+07 2.22888e+07 2.22888e+07 2.22888e+07 2.22888e+07 2.22888e+07
          2.22888e+07 2.22888e+07 2.22888e+07 2.22888e+07 2.22888e+07 2.22888e+07 2.22888e+07 2.22888e+07 2.22888e+07 2.22888e+07 2.22888e+07 2.22888e+07
          2.22888e+07 2.22888e+07 2.22888e+07 2.22888e+07 2.22888e+07 2.22888e+07 2.22888e+07 2.22888e+07 2.22888e+07 2.22888e+07 2.22888e+07 2.22888e+07
          2.22888e+07 2.22888e+07 2.22888e+07 2.22888e+07 2.22888e+07 2.22888e+07 2.22888e+07 2.22888e+07 2.22888e+07 2.22888e+07 2.22888e+07 2.22888e+07
          2.22888e+07 2.22888e+07 2.22888e+07 2.22888e+07 2.22888e+07 2.22888e+07 2.22888e+07 2.22888e+07 2.22888e+07 2.22888e+07 2.22888e+07 2.22888e+07
          2.22888e+07 2.22888e+07 2.22888e+07 2.22888e+07 2.22888e+07 2.22888e+07 2.22888e+07 2.22888e+07 2.22888e+07 2.22888e+07 2.22888e+07 2.22888e+07
          2.22888e+07 2.22888e+07 2.22888e+07 2.22888e+07 2.22888e+07 2.22888e+07 2.22888e+07 2.22888e+07 2.22888e+07 2.22888e+07 2.22888e+07 2.22888e+07
          2.22888e+07 2.22888e+07 2.22888e+07 2.22888e+07 2.22888e+07 2.22888e+07 2.22888e+07 2.22888e+07 2.22888e+07 2.22888e+07 2.22888e+07 2.22888e+07
          2.22888e+07 2.22888e+07 2.22888e+07 2.22888e+07 2.22888e+07 2.22888e+07 2.22888e+07 2.22888e+07 2.22888e+07 2.22888e+07 2.22888e+07 2.22888e+07
          2.22888e+07 2.22888e+07 2.22888e+07 2.22888e+07 2.22888e+07 2.22888e+07 2.22888e+07 2.22888e+07 2.22888e+07 2.22888e+07 2.22888e+07 2.22888e+07
          2.22888e+07 2.22888e+07 2.22888e+07 2.22888e+07 2.22888e+07 2.22888e+07 2.22888e+07 2.22888e+07 2.22888e+07 2.22888e+07 2.22888e+07 2.22888e+07
          2.22888e+07 2.22888e+07 2.22888e+07 2.22888e+07 2.22888e+07 2.22888e+07 2.22888e+07 2.22888e+07 2.22888e+07 2.22888e+07 2.22888e+07 2.22888e+07
          2.22888e+07 2.22888e+07 2.22888e+07 2.22888e+07 2.22888e+07 2.22888e+07 2.22888e+07 2.22888e+07 2.22888e+07 2.22888e+07 2.22888e+07 2.22888e+07
          2.22888e+07 2.22888e+07 2.22888e+07 2.22888e+07 2.22888e+07 2.22888e+07 2.22888e+07 2.22888e+07 2.22888e+07 2.22888e+07 2.22888e+07 2.22888e+07
          2.20192e+07 2.22888e+07 2.22888e+07 2.22888e+07 2.22888e+07 2.22888e+07 2.22888e+07 2.22888e+07 2.22888e+07 2.22888e+07 2.22888e+07 2.22888e+07
          2.22888e+07 2.22888e+07 2.22888e+07 2.22888e+07 2.22888e+07 2.22888e+07 2.22888e+07 2.22888e+07 2.22888e+07 2.22888e+07 2.22888e+07 2.22888e+07
          2.22888e+07 2.22888e+07 2.22888e+07 2.22888e+07 2.22888e+07 2.22888e+07 2.19442e+07 2.20192e+07 2.22888e+07 2.22888e+07 2.22888e+07 2.22888e+07
          2.22888e+07 2.22888e+07 2.22888e+07 2.22888e+07 2.22888e+07 2.22888e+07 2.22888e+07 2.22888e+07 2.22888e+07 2.22888e+07 2.22888e+07 2.22888e+07
          2.22888e+07 2.22888e+07 2.22888e+07 2.22888e+07 2.22888e+07 2.22888e+07 2.22888e+07 2.22888e+07 2.22888e+07 2.22888e+07 2.22888e+07 2.22888e+07
          2.22888e+07 2.22888e+07 2.22888e+07 2.22888e+07 2.22888e+07 2.22888e+07 2.22888e+07 2.22888e+07 2.22888e+07 2.22888e+07 2.22888e+07 2.22888e+07
          2.22888e+07 2.22888e+07 2.22888e+07 2.22888e+07 2.22888e+07 2.22888e+07 2.22888e+07 2.22888e+07 2.22888e+07 2.22888e+07 2.22888e+07 2.22888e+07
          2.22888e+07 2.22888e+07 2.22888e+07 2.22888e+07 2.22888e+07 2.22888e+07 2.22888e+07 2.22888e+07 2.22888e+07 2.22888e+07 2.22888e+07 2.22888e+07
          2.22888e+07 2.22888e+07 2.22888e+07 2.22888e+07 2.22888e+07 2.22888e+07 2.22888e+07 2.22888e+07 2.22888e+07 2.22888e+07 2.22888e+07 2.22888e+07
          2.22888e+07 2.22888e+07 2.22888e+07 2.22888e+07
        </DataArray>
        <DataArray type="Float32" Name="FractureHead" NumberOfComponents="1" format="ascii">
          -35938.4 -35939.3 -35939.1 -305513 -380518 -35936.8 -35937.1 -35937.1 -35937.6 -35937.5 -35938 -35937.9
          -305513 -35935.5 -35935.9 -35935.9 -35936.3 -35936.4 -35936.7 -35936.7 -35937.1 -35937.1 -35937.4 -35937.4
          -35934.2 -35934.6 -35934.7 -35935.1 -35935.3 -35935.6 -35935.8 -35936.1 -35936.2 -35936.5 -35936.6 -35936.9
          -35937 -35937.2 -35937.4 -35932.7 -35933.2 -35933.3 -35933.8 -35934 -35934.4 -35934.6 -35935 -35935.1
          -35935.5 -35935.7 -35936 -35936.2 -35936.5 -35936.7 -35936.9 -35937.1 -35937.4 -35937.7 -35931.3 -35931.7
          -35931.8 -35932.3 -35932.4 -35933 -35933.2 -35933.7 -35933.9 -35934.3 -35934.6 -35934.9 -35935.2 -35935.5
          -35935.8 -35936.1 -35936.3 -35936.6 -35936.9 -35937.2 -35937.6 -35938 -35938.8 -35930.8 -35930.8 -35930.6
          -35930.9 -35930.9 -35931.4 -35931.5 -35932.1 -35932.3 -35932.9 -35933.1 -35933.6 -35933.9 -35934.3 -35934.6
          -35935 -35935.3 -35935.6 -35935.9 -35936.2 -35936.6 -35936.9 -35937.4 -35937.8 -35938.6 -35939.2 -35940.6
          -35931.7 -35931.3 -35930.9 -35930.6 -35930.3 -35930.3 -35930.1 -35930.5 -35930.5 -35931.2 -35931.4 -35932
          -35932.3 -35932.9 -35933.2 -35933.7 -35934 -35934.4 -35934.7 -35935.1 -35935.5 -35935.9 -35936.2 -35936.6
          -35937.1 -35937.5 -35938.2 -35938.8 -35940.1 -35941.2 -35933.2 -35932.7 -35932.3 -35931.8 -35931.4 -35930.9
          -35930.5 -35930.1 -35929.7 -35929.7 -35929.4 -35930 -35930.3 -35931 -35931.4 -35932 -35932.4 -35933
          -35933.3 -35933.8 -35934.1 -35934.6 -35935 -35935.4 -35935.8 -35936.2 -35936.7 -35937.2 -35937.9 -35938.4
          -35934.6 -35934.2 -35933.8 -35933.3 -35933 -35932.4 -35932.1 -35931.5 -35931.2 -35930.5 -35930 -35929.4
          -35928.5 -35928.5 -35928.7 -35929.8 -35930.4 -35931.1 -35931.6 -35932.2 -35932.6 -35933.2 -35933.6 -35934
          -35934.5 -35934.9 -35935.4 -35935.8 -35936.4 -35936.8 -35935.9 -35935.5 -35935.1 -35934.7 -35934.4 -35934
          -35933.7 -35933.2 -35932.9 -35932.3 -35932 -35931.4 -35931 -35930.3 -35929.8 -35928.7 -35928.7 -35928.7
          -35929.7 -35930.3 -35930.9 -35931.5 -35932 -35932.5 -35933 -35933.5 -35933.9 -35934.4 -35935 -35935.4
          -35937.1 -35936.8 -35936.3 -35935.9 -35935.6 -35935.3 -35935 -35934.6 -35934.3 -35933.9 -35933.6 -35933.1
          -35932.9 -35932.3 -35932 -35931.4 -35931.1 -35930.4 -35930.3 -35929.7 -35930.2 -35930.2 -35930.7 -35931.1
          -35931.6 -35932 -35932.5 -35932.9 -35933.5 -35933.9 -35939.3 -35938.4 -35937.6 -35937.1 -35936.7 -35936.4
          -35936.1 -35935.8 -35935.5 -35935.1 -35934.9 -35934.6 -35934.3 -35933.9 -35933.7 -35933.2 -35933 -35932.4
          -35932.2 -35931.6 -35931.5 -35930.9 -35931.1 -35930.7 -35931.1 -35931.1 -35931.6 -35931.8 -35932.4 -35932.6
          -305513 -35939.1 -35938 -35937.5 -35937.1 -35936.7 -35936.5 -35936.2 -35936 -35935.7 -35935.5 -35935.2
          -35935 -35934.6 -35934.4 -35934 -35933.8 -35933.3 -35933.2 -35932.6 -35932.5 -35932 -35932 -35931.6
          -35931.8 -35931.6 -35932.1 -35932.1 -35939.5 -35940 -380518 -305513 -35937.9 -35937.4 -35937.1 -35936.9
          -35936.6 -35936.5 -35936.2 -35936.1 -35935.8 -35935.6 -35935.3 -35935.1 -35934.7 -35934.6 -35934.1 -35934
          -35933.6 -35933.5 -35933 -35932.9 -35932.5 -35932.6 -35932.4 -35940 -35939.5 -35937.4 -35937.2 -35937
          -35936.9 -35936.7 -35936.6 -35936.3 -35936.2 -35935.9 -35935.9 -35935.5 -35935.4 -35935 -35934.9 -35934.5
          -35934.4 -35933.9 -35933.9 -35933.5 -35937.4 -35937.4 -35937.1 -35937.2 -35936.9 -35936.9 -35936.6 -35936.6
          -35936.2 -35936.2 -35935.8 -35935.8 -35935.4 -35935.4 -35935 -35937.7 -35938 -35937.6 -35937.8 -35937.4
          -35937.5 -35937.1 -35937.2 -35936.7 -35936.8 -35936.4 -35938.8 -35939.2 -35938.6 -35938.8 -35938.2 -35938.4
          -35937.9 -35940.6 -35941.2 -35940.1
        </DataArray>
        <DataArray type="Float32" Name="ReservoirPressure" NumberOfComponents="1" format="ascii">
          2.21167e+07 2.21167e+07 2.21167e+07 2.19084e+07 2.19084e+07 2.21167e+07 2.21167e+07 2.21167e+07 2.21167e+07 2.21167e+07 2.21167e+07 2.21167e+07
          2.19084e+07 2.21167e+07 2.21167e+07 2.21167e+07 2.21167e+07 2.21167e+07 2.21167e+07 2.21167e+07 2.21167e+07 2.21167e+07 2.21167e+07 2.19648e+07
          2.21167e+07 2.21167e+07 2.21167e+07 2.21167e+07 2.21167e+07 2.21167e+07 2.21167e+07 2.21167e+07 2.21167e+07 2.21167e+07 2.19648e+07 2.19648e+07
          2.19648e+07 2.19648e+07 2.19648e+07 2.21167e+07 2.21167e+07 2.21167e+07 2.21167e+07 2.21167e+07 2.21167e+07 2.21167e+07 2.21167e+07 2.21167e+07
          2.21167e+07 2.19648e+07 2.19648e+07 2.19648e+07 2.19648e+07 2.19648e+07 2.19648e+07 2.19648e+07 2.19648e+07 2.19648e+07 2.21167e+07 2.21167e+07
          2.21167e+07 2.21167e+07 2.21167e+07 2.21167e+07 2.21167e+07 2.21167e+07 2.21167e+07 2.21167e+07 2.19648e+07 2.19648e+07 2.19648e+07 2.19648e+07
          2.19648e+07 2.19648e+07 2.19648e+07 2.19648e+07 2.19648e+07 2.19648e+07 2.17286e+07 2.17286e+07 2.17286e+07 2.21167e+07 2.21167e+07 2.21167e+07
          2.21167e+07 2.21167e+07 2.21167e+07 2.21167e+07 2.21167e+07 2.21167e+07 2.21167e+07 2.19648e+07 2.19648e+07 2.19648e+07 2.19648e+07 2.19648e+07
          2.19648e+07 2.19648e+07 2.19648e+07 2.19648e+07 2.19648e+07 2.17286e+07 2.17286e+07 2.17286e+07 2.17286e+07 2.17286e+07 2.17286e+07 2.17286e+07
          2.21167e+07 2.21167e+07 2.21167e+07 2.21167e+07 2.21167e+07 2.21167e+07 2.21167e+07 2.21167e+07 2.21167e+07 2.21167e+07 2.19648e+07 2.19648e+07
          2.19648e+07 2.19648e+07 2.19648e+07 2.19648e+07 2.19648e+07 2.19648e+07 2.19648e+07 2.19648e+07 2.17286e+07 2.17286e+07 2.17286e+07 2.17286e+07
          2.17286e+07 2.17286e+07 2.17286e+07 2.17286e+07 2.17286e+07 2.17286e+07 2.21167e+07 2.21167e+07 2.21167e+07 2.21167e+07 2.21167e+07 2.21167e+07
          2.21167e+07 2.21167e+07 2.21167e+07 2.21167e+07 2.19648e+07 2.19648e+07 2.19648e+07 2.19648e+07 2.19648e+07 2.19648e+07 2.19648e+07 2.19648e+07
          2.19648e+07 2.19648e+07 2.17286e+07 2.17286e+07 2.17286e+07 2.17286e+07 2.17286e+07 2.17286e+07 2.17286e+07 2.17286e+07 2.17286e+07 2.17286e+07
          2.21167e+07 2.21167e+07 2.21167e+07 2.21167e+07 2.21167e+07 2.21167e+07 2.21167e+07 2.21167e+07 2.21167e+07 2.21167e+07 2.19648e+07 2.19648e+07
          2.19648e+07 2.19648e+07 2.19648e+07 2.19648e+07 2.19648e+07 2.19648e+07 2.19648e+07 2.19648e+07 2.17286e+07 2.17286e+07 2.17286e+07 2.17286e+07
          2.17286e+07 2.17286e+07 2.17286e+07 2.17286e+07 2.17286e+07 2.17286e+07 2.21167e+07 2.21167e+07 2.21167e+07 2.21167e+07 2.21167e+07 2.21167e+07
          2.21167e+07 2.21167e+07 2.21167e+07 2.21167e+07 2.19648e+07 2.19648e+07 2.19648e+07 2.19648e+07 2.19648e+07 2.19648e+07 2.19648e+07 2.19648e+07
          2.19648e+07 2.19648e+07 2.17286e+07 2.17286e+07 2.17286e+07 2.17286e+07 2.17286e+07 2.17286e+07 2.17286e+07 2.17286e+07 2.17286e+07 2.17286e+07
          2.21167e+07 2.21167e+07 2.21167e+07 2.21167e+07 2.21167e+07 2.21167e+07 2.21167e+07 2.21167e+07 2.21167e+07 2.21167e+07 2.19648e+07 2.19648e+07
          2.19648e+07 2.19648e+07 2.19648e+07 2.19648e+07 2.19648e+07 2.19648e+07 2.19648e+07 2.19648e+07 2.17286e+07 2.17286e+07 2.17286e+07 2.17286e+07
          2.17286e+07 2.17286e+07 2.17286e+07 2.17286e+07 2.17286e+07 2.17286e+07 2.21167e+07 2.21167e+07 2.21167e+07 2.21167e+07 2.21167e+07 2.21167e+07
          2.21167e+07 2.21167e+07 2.21167e+07 2.21167e+07 2.19648e+07 2.19648e+07 2.19648e+07 2.19648e+07 2.19648e+07 2.19648e+07 2.19648e+07 2.19648e+07
          2.19648e+07 2.19648e+07 2.17286e+07 2.17286e+07 2.17286e+07 2.17286e+07 2.17286e+07 2.17286e+07 2.17286e+07 2.17286e+07 2.17286e+07 2.17286e+07
          2.19084e+07 2.21167e+07 2.21167e+07 2.21167e+07 2.21167e+07 2.21167e+07 2.21167e+07 2.21167e+07 2.19648e+07 2.19648e+07 2.19648e+07 2.19648e+07
          2.19648e+07 2.19648e+07 2.19648e+07 2.19648e+07 2.19648e+07 2.19648e+07 2.17286e+07 2.17286e+07 2.17286e+07 2.17286e+07 2.17286e+07 2.17286e+07
          2.17286e+07 2.17286e+07 2.17286e+07 2.17286e+07 2.14203e+07 2.14203e+07 2.19084e+07 2.19084e+07 2.21167e+07 2.21167e+07 2.21167e+07 2.19648e+07
          2.19648e+07 2.19648e+07 2.19648e+07 2.19648e+07 2.19648e+07 2.19648e+07 2.19648e+07 2.19648e+07 2.19648e+07 2.17286e+07 2.17286e+07 2.17286e+07
          2.17286e+07 2.17286e+07 2.17286e+07 2.17286e+07 2.17286e+07 2.17286e+07 2.17286e+07 2.14203e+07 2.14203e+07 2.19648e+07 2.19648e+07 2.19648e+07
          2.19648e+07 2.19648e+07 2.19648e+07 2.19648e+07 2.19648e+07 2.19648e+07 2.17286e+07 2.17286e+07 2.17286e+07 2.17286e+07 2.17286e+07 2.17286e+07
          2.17286e+07 2.17286e+07 2.17286e+07 2.17286e+07 2.19648e+07 2.19648e+07 2.19648e+07 2.19648e+07 2.19648e+07 2.17286e+07 2.17286e+07 2.17286e+07
          2.17286e+07 2.17286e+07 2.17286e+07 2.17286e+07 2.17286e+07 2.17286e+07 2.17286e+07 2.19648e+07 2.17286e+07 2.17286e+07 2.17286e+07 2.17286e+07
          2.17286e+07 2.17286e+07 2.17286e+07 2.17286e+07 2.17286e+07 2.17286e+07 2.17286e+07 2.17286e+07 2.17286e+07 2.17286e+07 2.17286e+07 2.17286e+07
          2.17286e+07 2.17286e+07 2.17286e+07 2.17286e+07
        </DataArray>
        <DataArray type="Float32" Name="LeakofDP" NumberOfComponents="1" format="ascii">
          172104 172103 172103 110827 35822.4 172105 172105 172105 172105 172105 172104 172104
          110828 172107 172106 172106 172106 172106 172105 172105 172105 172105 172105 323981
          172108 172108 172107 172107 172107 172106 172106 172106 172106 172106 323982 323982
          323982 323981 323981 172109 172109 172109 172108 172108 172108 172108 172107 172107
          172107 323983 323983 323982 323982 323982 323982 323981 323981 323981 172111 172110
          172110 172110 172110 172109 172109 172108 172108 172108 323984 323984 323983 323983