<?xml version="1.0"?>
<VTKFile type="UnstructuredGrid" version="0.1" byte_order="LittleEndian">
  <UnstructuredGrid>
    <Piece NumberOfCells="3025" NumberOfPoints="3744">
      <PointData Vectors="disp">
        <DataArray type="Float32" Name="disp" NumberOfComponents="3" format="ascii">
          0 0 -0.000247496 -0.000134439 0 -0.000319589 0 -0.00013444 -0.00031959 -0.000143568 -0.000143569 -0.000400985
          0 0 -0.000173994 -0.000121683 0 -0.000244281 0 -0.000121684 -0.000244282 -0.000130132 -0.000130133 -0.000323379
          -0.000141029 0 -0.000434548 -0.000148174 -0.000159843 -0.000531357 -0.00012995 0 -0.000359427 -0.000136307 -0.000144938 -0.000453894
          -8.50708e-05 0 -0.000501248 -8.49803e-05 -0.000166896 -0.000606492 -8.16915e-05 0 -0.000428831 -8.15082e-05 -0.000151111 -0.000532436
          -5.11317e-06 0 -0.000496343 5.63136e-07 -0.000161129 -0.000602588 -1.05531e-05 0 -0.000423015 -5.17731e-06 -0.000145552 -0.0005278
          1.65908e-05 0 -0.000426135 2.01005e-05 -0.000151942 -0.000529756 1.1357e-05 0 -0.000348157 1.4672e-05 -0.000136861 -0.00045009
          -1.66542e-05 0 -0.000426144 -2.01657e-05 -0.000151945 -0.000529766 -1.14189e-05 0 -0.000348167 -1.47355e-05 -0.000136863 -0.000450101
          5.0687e-06 0 -0.000496356 -6.07867e-07 -0.000161135 -0.000602602 1.05079e-05 0 -0.000423028 5.13184e-06 -0.000145558 -0.000527815
          8.50427e-05 0 -0.000501246 8.49531e-05 -0.000166904 -0.000606491 8.16617e-05 0 -0.000428829 8.14793e-05 -0.000151119 -0.000532435
          0.00014101 0 -0.000434534 0.000148155 -0.00015985 -0.000531343 0.00012993 0 -0.000359413 0.000136288 -0.000144945 -0.00045388
          0.000134428 0 -0.000319571 0.000143558 -0.000143577 -0.000400967 0.000121672 0 -0.000244263 0.000130121 -0.00013014 -0.000323362
          0 0 -0.000247478 0 -0.000134448 -0.000319573 0 0 -0.000173977 0 -0.000121692 -0.000244265
          0 -0.000141031 -0.000434549 -0.000159842 -0.000148175 -0.000531357 0 -0.000129952 -0.000359428 -0.000144937 -0.000136309 -0.000453894
          -0.00015732 -0.000157322 -0.000686871 -0.000144232 -0.000144233 -0.000610427 -7.46558e-05 -0.00014909 -0.00077219 -7.17112e-05 -0.000136187 -0.000700438
          2.38701e-05 -0.000121226 -0.000760752 1.67742e-05 -0.000109998 -0.00068803 3.26868e-05 -9.45199e-05 -0.000674682 2.65414e-05 -8.48688e-05 -0.000595915
          -3.27563e-05 -9.45255e-05 -0.000674694 -2.66089e-05 -8.48741e-05 -0.000595928 -2.39146e-05 -0.000121239 -0.00076077 -1.68194e-05 -0.000110011 -0.000688049
          7.46324e-05 -0.000149106 -0.000772193 7.1686e-05 -0.000136202 -0.000700441 0.000157306 -0.000157337 -0.000686859 0.000144216 -0.000144248 -0.000610416
          0.000159833 -0.000148189 -0.00053134 0.000144928 -0.000136323 -0.000453877 0 -0.000141046 -0.000434532 0 -0.000129966 -0.000359412
          0 -8.50724e-05 -0.000501247 -0.000166895 -8.49818e-05 -0.000606491 0 -8.16933e-05 -0.00042883 -0.000151111 -8.15099e-05 -0.000532434
          -0.00014909 -7.46568e-05 -0.000772188 -0.000136186 -7.17125e-05 -0.000700436 -3.87336e-05 -3.87339e-05 -0.00084809 -3.80688e-05 -3.80694e-05 -0.000781214
          7.31126e-05 1.85669e-05 -0.000805035 6.31104e-05 1.57207e-05 -0.000735007 5.66161e-05 6.5031e-05 -0.000687587 4.91311e-05 5.9516e-05 -0.000608543
          -5.66933e-05 6.50231e-05 -0.000687603 -4.92057e-05 5.95085e-05 -0.000608561 -7.31578e-05 1.85474e-05 -0.000805063 -6.3156e-05 1.57021e-05 -0.000735037
          3.87156e-05 -3.87572e-05 -0.000848101 3.80488e-05 -3.80916e-05 -0.000781226 0.000149081 -7.46789e-05 -0.000772181 0.000136176 -7.17338e-05 -0.000700429
          0.00016689 -8.50023e-05 -0.000606476 0.000151105 -8.15299e-05 -0.00053242 0 -8.5093e-05 -0.000501233 0 -8.17134e-05 -0.000428815
          0 -5.11513e-06 -0.000496341 -0.000161128 5.61229e-07 -0.000602585 0 -1.05551e-05 -0.000423013 -0.000145551 -5.17921e-06 -0.000527798
          -0.000121226 2.38687e-05 -0.000760749 -0.000109997 1.67728e-05 -0.000688027 1.85668e-05 7.31118e-05 -0.000805034 1.57209e-05 6.31096e-05 -0.000735006
          0.000139188 0.000139187 -0.000708659 0.000125497 0.000125497 -0.000630616 8.69422e-05 0.000189122 -0.000546241 7.78659e-05 0.000172821 -0.000454367
          -8.70284e-05 0.000189115 -0.000546263 -7.79487e-05 0.000172814 -0.000454391 -0.000139234 0.000139168 -0.0007087 -0.000125544 0.000125478 -0.00063066
          -1.85791e-05 7.30882e-05 -0.000805057 -1.57352e-05 6.3087e-05 -0.000735031 0.000121224 2.38456e-05 -0.000760751 0.000109994 1.67506e-05 -0.000688029
          0.000161127 5.3964e-07 -0.000602577 0.000145549 -5.2001e-06 -0.00052779 0 -5.13687e-06 -0.000496332 0 -1.05761e-05 -0.000423004
          0 1.65892e-05 -0.000426133 -0.000151942 2.0099e-05 -0.000529754 0 1.13555e-05 -0.000348156 -0.00013686 1.46705e-05 -0.000450088
          -9.45199e-05 3.26857e-05 -0.000674679 -8.48686e-05 2.65404e-05 -0.000595913 6.5031e-05 5.66154e-05 -0.000687586 5.95162e-05 4.91306e-05 -0.000608543
          0.000189123 8.69416e-05 -0.000546242 0.000172822 7.78654e-05 -0.000454368 0.000109229 0.000109228 -0.000348328 9.90596e-05 9.90585e-05 -0.000238425
          -0.000109321 0.000109225 -0.000348354 -9.91472e-05 9.90554e-05 -0.000238454 -0.00018917 8.69331e-05 -0.000546293 -0.000172868 7.78571e-05 -0.000454423
          -6.5039e-05 5.66041e-05 -0.00068762 -5.95264e-05 4.91196e-05 -0.000608579 9.45229e-05 3.26734e-05 -0.000674689 8.48699e-05 2.65284e-05 -0.000595923
          0.000151943 2.00864e-05 -0.000529751 0.000136861 1.46581e-05 -0.000450086 0 1.65759e-05 -0.000426129 0 1.13424e-05 -0.000348152
          0 -1.66547e-05 -0.000426142 -0.000151945 -2.01662e-05 -0.000529764 0 -1.14195e-05 -0.000348165 -0.000136863 -1.47361e-05 -0.000450098
          -9.45252e-05 -3.27565e-05 -0.000674692 -8.48736e-05 -2.66091e-05 -0.000595926 6.50236e-05 -5.66932e-05 -0.000687603 5.95092e-05 -4.92056e-05 -0.000608561
          0.000189116 -8.70284e-05 -0.000546265 0.000172815 -7.79487e-05 -0.000454392 0.000109227 -0.000109322 -0.000348355 9.90577e-05 -9.9148e-05 -0.000238454
          -0.000109316 -0.000109318 -0.000348381 -9.91428e-05 -9.9145e-05 -0.000238482 -0.000189161 -8.70209e-05 -0.000546313 -0.00017286 -7.79418e-05 -0.000454445
          -6.5031e-05 -5.66858e-05 -0.000687635 -5.95188e-05 -4.91989e-05 -0.000608595 9.45284e-05 -3.27518e-05 -0.000674699 8.4875e-05 -2.66051e-05 -0.000595934
          0.000151946 -2.01642e-05 -0.000529759 0.000136864 -1.47347e-05 -0.000450095 0 -1.66543e-05 -0.000426136 0 -1.14196e-05 -0.00034816
          0 5.06854e-06 -0.000496353 -0.000161134 -6.07994e-07 -0.000602598 0 1.05077e-05 -0.000423026 -0.000145557 5.13175e-06 -0.000527812
          -0.000121238 -2.39145e-05 -0.000760767 -0.000110009 -1.68192e-05 -0.000688046 1.85488e-05 -7.31575e-05 -0.000805062 1.57038e-05 -6.31556e-05 -0.000735037
          0.000139171 -0.000139234 -0.000708701 0.000125481 -0.000125544 -0.000630661 8.69372e-05 -0.000189171 -0.000546293 7.78611e-05 -0.000172869 -0.000454423
          -8.70168e-05 -0.000189164 -0.000546313 -7.79377e-05 -0.000172862 -0.000454445 -0.000139213 -0.000139217 -0.000708737 -0.000125524 -0.000125528 -0.0006307
          -1.85594e-05 -7.31394e-05 -0.00080508 -1.57165e-05 -6.31388e-05 -0.000735056 0.000121237 -2.39003e-05 -0.000760764 0.000110006 -1.68062e-05 -0.000688043
          0.000161133 -5.97853e-07 -0.000602585 0.000145555 5.14094e-06 -0.000527799 0 5.07678e-06 -0.000496339 0 1.05152e-05 -0.000423012
          0 8.50423e-05 -0.000501245 -0.000166902 8.49528e-05 -0.000606489 0 8.16616e-05 -0.000428828 -0.000151118 8.14792e-05 -0.000532434
          -0.000149104 7.46322e-05 -0.000772191 -0.0001362 7.16861e-05 -0.000700439 -3.87545e-05 3.87157e-05 -0.000848102 -3.80886e-05 3.80491e-05 -0.000781227
          7.30928e-05 -1.85791e-05 -0.00080506 6.30917e-05 -1.5735e-05 -0.000735034 5.66102e-05 -6.50398e-05 -0.000687622 4.91256e-05 -5.95269e-05 -0.000608582
          -5.66795e-05 -6.5033e-05 -0.000687636 -4.91927e-05 -5.95206e-05 -0.000608596 -7.31332e-05 -1.85632e-05 -0.000805082 -6.31327e-05 -1.572e-05 -0.000735057
          3.87383e-05 3.87325e-05 -0.000848106 3.80704e-05 3.80649e-05 -0.000781232 0.000149096 7.46453e-05 -0.000772178 0.00013619 7.16983e-05 -0.000700426
          0.000166897 8.49623e-05 -0.000606469 0.000151112 8.14881e-05 -0.000532414 0 8.50502e-05 -0.000501225 0 8.16691e-05 -0.000428808
          0 0.00014101 -0.000434536 -0.000159848 0.000148155 -0.000531345 0 0.00012993 -0.000359415 -0.000144944 0.000136288 -0.000453882
          -0.000157334 0.000157306 -0.00068686 -0.000144245 0.000144216 -0.000610417 -7.4675e-05 0.000149081 -0.000772185 -7.17296e-05 0.000136176 -0.000700433
          2.38518e-05 0.000121224 -0.000760756 1.67569e-05 0.000109994 -0.000688035 3.26813e-05 9.45228e-05 -0.000674694 2.65362e-05 8.48699e-05 -0.000595928
          -3.27436e-05 9.45273e-05 -0.000674703 -2.65969e-05 8.48741e-05 -0.000595938 -2.38923e-05 0.000121235 -0.000760767 -1.67982e-05 0.000110004 -0.000688047
          7.46527e-05 0.000149092 -0.00077218 7.17055e-05 0.000136187 -0.000700428 0.00015732 0.000157314 -0.000686842 0.000144229 0.000144224 -0.000610399
          0.00015984 0.000148161 -0.000531322 0.000144935 0.000136294 -0.00045386 0 0.000141015 -0.000434514 0 0.000129935 -0.000359394
          0 0.000134428 -0.000319574 -0.000143574 0.000143558 -0.000400969 0 0.000121673 -0.000244266 -0.000130138 0.000130122 -0.000323364
          -0.000148186 0.000159834 -0.000531342 -0.000136319 0.000144929 -0.00045388 -8.49975e-05 0.000166891 -0.000606481 -8.15248e-05 0.000151106 -0.000532425
          5.46851e-07 0.000161127 -0.000602583 -5.19285e-06 0.00014555 -0.000527796 2.00955e-05 0.000151944 -0.000529757 1.46671e-05 0.000136862 -0.000450091
          -2.01547e-05 0.000151946 -0.000529763 -1.47253e-05 0.000136864 -0.000450099 -5.88624e-07 0.000161132 -0.000602589 5.15011e-06 0.000145555 -0.000527803
          8.49707e-05 0.000166896 -0.000606472 8.14963e-05 0.000151111 -0.000532416 0.000148167 0.000159838 -0.000531323 0.0001363 0.000144933 -0.00045386
          0.000143564 0.000143561 -0.000400946 0.000130127 0.000130125 -0.000323341 0 0.000134431 -0.000319552 0 0.000121676 -0.000244244
          0 0 -0.000247481 -0.000134445 0 -0.000319574 0 0 -0.000173979 -0.00012169 0 -0.000244266
          -0.000141042 0 -0.000434534 -0.000129962 0 -0.000359414 -8.50878e-05 0 -0.000501237 -8.1708e-05 0 -0.00042882
          -5.12928e-06 0 -0.000496337 -1.05686e-05 0 -0.00042301 1.65854e-05 0 -0.000426134 1.13517e-05 0 -0.000348157
          -1.66444e-05 0 -0.00042614 -1.14098e-05 0 -0.000348163 5.08634e-06 0 -0.000496342 1.05246e-05 0 -0.000423015
          8.5059e-05 0 -0.000501227 8.16775e-05 0 -0.00042881 0.000141021 0 -0.000434513 0.000129941 0 -0.000359393
          0.000134434 0 -0.000319551 0.000121678 0 -0.000244244 0 0 -0.000247458 0 0 -0.000173957
          0 0 -0.000134177 -0.000109949 0 -0.000198398 0 -0.00010995 -0.000198399 -0.000118553 -0.000118554 -0.000269602
          -0.000119505 0 -0.000310068 -0.000125795 -0.000133448 -0.000394635 -7.92967e-05 0 -0.000382113 -7.94326e-05 -0.000139874 -0.000475666
          -1.5296e-05 0 -0.000375775 -1.0204e-05 -0.000134917 -0.000470347 7.66333e-06 0 -0.000297321 1.09148e-05 -0.000126574 -0.000388644
          -7.72396e-06 0 -0.000297332 -1.0977e-05 -0.000126576 -0.000388655 1.52502e-05 0 -0.000375789 1.01581e-05 -0.000134923 -0.000470362
          7.92653e-05 0 -0.000382111 7.94022e-05 -0.000139881 -0.000475666 0.000119484 0 -0.000310054 0.000125775 -0.000133456 -0.000394622
          0.000109938 0 -0.000198381 0.000118543 -0.000118562 -0.000269585 0 0 -0.00013416 0 -0.000109958 -0.000198382
          0 -0.000119507 -0.000310069 -0.000133448 -0.000125797 -0.000394635 -0.000133921 -0.000133923 -0.00054406 -7.08136e-05 -0.000127004 -0.000637153
          1.09572e-05 -0.00010218 -0.000623562 2.26634e-05 -7.76148e-05 -0.000526027 -2.27293e-05 -7.762e-05 -0.000526041 -1.10027e-05 -0.000102193 -0.000623582
          7.07868e-05 -0.000127019 -0.000637156 0.000133904 -0.000133937 -0.000544049 0.000133438 -0.000125811 -0.000394619 0 -0.000119521 -0.000310053
          0 -7.92987e-05 -0.000382112 -0.000139873 -7.94345e-05 -0.000475665 -0.000127003 -7.0815e-05 -0.000637151 -3.90229e-05 -3.90236e-05 -0.00072144
          5.66341e-05 1.36204e-05 -0.000671699 4.53921e-05 5.74589e-05 -0.000536288 -4.5465e-05 5.74514e-05 -0.000536307 -5.66796e-05 1.3602e-05 -0.000671731
          3.90015e-05 -3.90453e-05 -0.000721453 0.000126992 -7.08357e-05 -0.000637144 0.000139867 -7.94539e-05 -0.000475651 0 -7.93181e-05 -0.000382098
          0 -1.5298e-05 -0.000375773 -0.000134917 -1.02059e-05 -0.000470344 -0.00010218 1.09558e-05 -0.000623559 1.36207e-05 5.66333e-05 -0.000671698
          0.000119572 0.000119572 -0.000557886 7.48688e-05 0.000168146 -0.000366522 -7.495e-05 0.000168139 -0.000366548 -0.000119618 0.000119553 -0.000557933
          -1.36361e-05 5.66109e-05 -0.000671725 0.000102175 1.09341e-05 -0.000623562 0.000134915 -1.02263e-05 -0.000470337 0 -1.53184e-05 -0.000375765
          0 7.66181e-06 -0.00029732 -0.000126574 1.09134e-05 -0.000388642 -7.76145e-05 2.26624e-05 -0.000526025 5.74593e-05 4.53916e-05 -0.000536288
          0.000168147 7.48684e-05 -0.000366523 9.69389e-05 9.69379e-05 -0.000129838 -9.70251e-05 9.69346e-05 -0.000129869 -0.000168193 7.48599e-05 -0.000366582
          -5.74703e-05 4.53805e-05 -0.000536327 7.76146e-05 2.26504e-05 -0.000526037 0.000126574 1.09011e-05 -0.000388641 0 7.64896e-06 -0.000297317
          0 -7.72463e-06 -0.00029733 -0.000126576 -1.09775e-05 -0.000388652 -7.76194e-05 -2.27295e-05 -0.000526039 5.74524e-05 -4.54649e-05 -0.000536307
          0.00016814 -7.495e-05 -0.00036655 9.69369e-05 -9.70259e-05 -0.00012987 -9.70207e-05 -9.70229e-05 -0.0001299 -0.000168185 -7.49431e-05 -0.000366607
          -5.74628e-05 -4.54584e-05 -0.000536344 7.76196e-05 -2.2726e-05 -0.000526048 0.000126576 -1.09767e-05 -0.000388649 0 -7.72509e-06 -0.000297325
          0 1.52501e-05 -0.000375787 -0.000134923 1.01581e-05 -0.000470359 -0.000102191 -1.10024e-05 -0.000623579 1.36039e-05 -5.66791e-05 -0.000671731
          0.000119556 -0.000119618 -0.000557934 7.48638e-05 -0.000168193 -0.000366583 -7.4939e-05 -0.000168187 -0.000366607 -0.000119599 -0.000119603 -0.000557976
          -1.36178e-05 -5.66629e-05 -0.000671751 0.000102187 -1.09902e-05 -0.000623577 0.00013492 1.01664e-05 -0.000470347 0 1.52568e-05 -0.000375773
          0 7.92654e-05 -0.000382111 -0.00013988 7.94024e-05 -0.000475664 -0.000127017 7.07872e-05 -0.000637155 -3.90421e-05 3.90021e-05 -0.000721454
          5.66157e-05 -1.36356e-05 -0.000671728 4.53864e-05 -5.74705e-05 -0.00053633 -4.54521e-05 -5.74643e-05 -0.000536345 -5.66568e-05 -1.36211e-05 -0.000671753
          3.90223e-05 3.90171e-05 -0.000721459 0.000127006 7.07986e-05 -0.000637142 0.000139874 7.94106e-05 -0.000475645 0 7.92724e-05 -0.000382091
          0 0.000119484 -0.000310056 -0.000133454 0.000125775 -0.000394623 -0.000133934 0.000133905 -0.00054405 -7.08312e-05 0.000126993 -0.000637148
          1.09404e-05 0.000102176 -0.000623567 2.26581e-05 7.76148e-05 -0.000526042 -2.27178e-05 7.76189e-05 -0.000526052 -1.09823e-05 0.000102185 -0.000623581
          7.08055e-05 0.000127002 -0.000637144 0.000133917 0.000133913 -0.000544032 0.000133445 0.000125781 -0.000394602 0 0.000119489 -0.000310035
          0 0.000109938 -0.000198384 -0.00011856 0.000118543 -0.000269587 -0.000125807 0.000133439 -0.000394621 -7.94486e-05 0.000139868 -0.000475655
          -1.0219e-05 0.000134915 -0.000470343 1.09099e-05 0.000126574 -0.000388646 -1.09673e-05 0.000126576 -0.000388653 1.01755e-05 0.00013492 -0.000470351
          7.94186e-05 0.000139872 -0.000475648 0.000125786 0.000133443 -0.000394602 0.000118549 0.000118546 -0.000269565 0 0.000109941 -0.000198362
          0 0 -0.000134163 -0.000109955 0 -0.000198384 -0.000119517 0 -0.000310055 -7.93126e-05 0 -0.000382102
          -1.53108e-05 0 -0.00037577 7.65809e-06 0 -0.000297322 -7.71544e-06 0 -0.000297328 1.52662e-05 0 -0.000375776
          7.92806e-05 0 -0.000382093 0.000119495 0 -0.000310035 0.000109944 0 -0.000198362 0 0 -0.000134141
          0 0 -0.000110753 -9.89637e-05 0 -0.000168562 0 -9.89648e-05 -0.000168562 -0.000107787 -0.000107789 -0.000231376
          -0.000110088 0 -0.000275265 -0.00011678 -0.000123304 -0.000348844 -7.75644e-05 0 -0.000348942 -7.83288e-05 -0.000130761 -0.00043081
          -1.9467e-05 0 -0.000342997 -1.4616e-05 -0.000126674 -0.000425533 5.14347e-06 0 -0.000261486 8.46353e-06 -0.000118503 -0.000340207
          -5.20305e-06 0 -0.000261496 -8.52459e-06 -0.000118505 -0.000340218 1.94209e-05 0 -0.000343012 1.45698e-05 -0.00012668 -0.000425549
          7.75317e-05 0 -0.000348941 7.8297e-05 -0.000130768 -0.000430809 0.000110065 0 -0.000275252 0.000116759 -0.000123311 -0.000348832
          9.89523e-05 0 -0.000168544 0.000107776 -0.000107796 -0.000231359 0 0 -0.000110736 0 -9.89723e-05 -0.000168546
          0 -0.000110089 -0.000275266 -0.000123304 -0.000116782 -0.000348845 -0.000126228 -0.00012623 -0.000487919 -7.14308e-05 -0.000121323 -0.000582064
          6.28347e-06 -9.7612e-05 -0.000567984 2.06575e-05 -7.2691e-05 -0.000465049 -2.07223e-05 -7.26962e-05 -0.000465064 -6.32885e-06 -9.76245e-05 -0.000568005
          7.14027e-05 -0.000121337 -0.000582068 0.00012621 -0.000126244 -0.000487908 0.000123294 -0.000116796 -0.000348829 0 -0.000110103 -0.00027525
          0 -7.75666e-05 -0.000348941 -0.00013076 -7.83308e-05 -0.000430808 -0.000121322 -7.14322e-05 -0.000582063 -4.11657e-05 -4.11666e-05 -0.000668248
          5.33374e-05 1.24423e-05 -0.000615629 4.49215e-05 5.88372e-05 -0.000470406 -4.49936e-05 5.88294e-05 -0.000470426 -5.33825e-05 1.24235e-05 -0.000615663
          4.11435e-05 -4.1188e-05 -0.000668261 0.000121309 -7.14523e-05 -0.000582056 0.000130754 -7.83495e-05 -0.000430795 0 -7.75854e-05 -0.000348928
          0 -1.94691e-05 -0.000342995 -0.000126673 -1.46179e-05 -0.000425531 -9.76116e-05 6.28209e-06 -0.000567981 1.24427e-05 5.33367e-05 -0.000615628
          0.0001208 0.000120799 -0.000491628 7.73939e-05 0.000174337 -0.000282123 -7.74752e-05 0.000174329 -0.000282152 -0.000120845 0.00012078 -0.000491679
          -1.24582e-05 5.33137e-05 -0.000615657 9.76058e-05 6.26055e-06 -0.000567985 0.00012667 -1.46378e-05 -0.000425523 0 -1.94889e-05 -0.000342987
          0 5.14198e-06 -0.000261484 -0.000118502 8.46218e-06 -0.000340205 -7.26906e-05 2.06566e-05 -0.000465047 5.88378e-05 4.49211e-05 -0.000470406
          0.000174338 7.73935e-05 -0.000282124 0.000102281 0.00010228 -1.93076e-05 -0.000102368 0.000102277 -1.93421e-05 -0.000174383 7.73844e-05 -0.000282189
          -5.88482e-05 4.49095e-05 -0.000470448 7.26899e-05 2.06444e-05 -0.00046506 0.000118502 8.44982e-06 -0.000340205 0 5.12922e-06 -0.000261482
          0 -5.20372e-06 -0.000261495 -0.000118505 -8.52514e-06 -0.000340216 -7.26955e-05 -2.07226e-05 -0.000465061 5.88306e-05 -4.49935e-05 -0.000470426
          0.000174331 -7.74751e-05 -0.000282153 0.000102279 -0.000102369 -1.93428e-05 -0.000102364 -0.000102366 -1.93761e-05 -0.000174374 -7.74676e-05 -0.000282215
          -5.88405e-05 -4.49867e-05 -0.000470466 7.26949e-05 -2.07191e-05 -0.000465072 0.000118505 -8.52456e-06 -0.000340214 0 -5.20444e-06 -0.00026149
          0 1.94209e-05 -0.000343009 -0.000126679 1.45699e-05 -0.000425546 -9.76232e-05 -6.32851e-06 -0.000568003 1.24257e-05 -5.33818e-05 -0.000615662
          0.000120783 -0.000120845 -0.00049168 7.73883e-05 -0.000174383 -0.00028219 -7.74635e-05 -0.000174376 -0.000282215 -0.000120824 -0.000120828 -0.000491724
          -1.24399e-05 -5.33654e-05 -0.000615684 9.76176e-05 -6.31675e-06 -0.000568 0.000126676 1.45776e-05 -0.000425534 0 1.94269e-05 -0.000342996
          0 7.7532e-05 -0.00034894 -0.000130767 7.82974e-05 -0.000430808 -0.000121335 7.14033e-05 -0.000582067 -4.11846e-05 4.11444e-05 -0.000668262
          5.33185e-05 -1.24574e-05 -0.00061566 4.49154e-05 -5.88482e-05 -0.00047045 -4.49805e-05 -5.88419e-05 -0.000470467 -5.33594e-05 -1.2443e-05 -0.000615686
          4.11638e-05 4.11588e-05 -0.000668267 0.000121322 7.14138e-05 -0.000582054 0.00013076 7.83049e-05 -0.000430789 0 7.75384e-05 -0.000348921
          0 0.000110066 -0.000275254 -0.00012331 0.000116759 -0.000348833 -0.00012624 0.000126211 -0.000487909 -7.14476e-05 0.00012131 -0.00058206
          6.26687e-06 9.76067e-05 -0.00056799 2.0652e-05 7.26903e-05 -0.000465065 -2.07109e-05 7.26943e-05 -0.000465076 -6.30894e-06 9.76157e-05 -0.000568004
          7.14206e-05 0.000121319 -0.000582056 0.000126223 0.000126218 -0.000487892 0.000123301 0.000116765 -0.000348812 0 0.000110071 -0.000275233
          0 9.89528e-05 -0.000168547 -0.000107794 0.000107777 -0.000231362 -0.000116792 0.000123295 -0.000348831 -7.83441e-05 0.000130754 -0.000430799
          -1.46305e-05 0.000126671 -0.00042553 8.45857e-06 0.000118503 -0.00034021 -8.51526e-06 0.000118505 -0.000340218 1.45866e-05 0.000126675 -0.000425538
          7.83126e-05 0.000130759 -0.000430792 0.00011677 0.000123298 -0.000348812 0.000107783 0.00010778 -0.00023134 0 9.89558e-05 -0.000168527
          0 0 -0.000110739 -9.89702e-05 0 -0.000168548 -0.0001101 0 -0.000275252 -7.75797e-05 0 -0.000348932
          -1.94813e-05 0 -0.000342993 5.13822e-06 0 -0.000261487 -5.1949e-06 0 -0.000261494 1.94361e-05 0 -0.000342999
          7.75464e-05 0 -0.000348923 0.000110077 0 -0.000275233 9.89586e-05 0 -0.000168526 0 0 -0.000110717
          0 0 -9.57858e-05 -8.88738e-05 0 -0.00014794 0 -8.88749e-05 -0.000147941 -9.77444e-05 -9.77455e-05 -0.000203392
          -0.00010167 0 -0.000249045 -0.000108975 -0.000113921 -0.000312718 -7.6387e-05 0 -0.000323108 -7.80134e-05 -0.000122852 -0.000394142
          -2.31439e-05 0 -0.00031859 -1.84781e-05 -0.000119812 -0.000389882 3.49664e-06 0 -0.000234309 7.02219e-06 -0.000111621 -0.000301061
          -3.55528e-06 0 -0.00023432 -7.08231e-06 -0.000111623 -0.000301073 2.30977e-05 0 -0.000318604 1.8432e-05 -0.000119818 -0.000389898
          7.6353e-05 0 -0.000323106 7.79805e-05 -0.000122858 -0.000394142 0.000101647 0 -0.000249032 0.000108953 -0.000113928 -0.000312706
          8.88623e-05 0 -0.000147923 9.77332e-05 -9.77527e-05 -0.000203376 0 0 -9.57689e-05 0 -8.88824e-05 -0.000147924
          0 -0.000101672 -0.000249046 -0.00011392 -0.000108977 -0.000312718 -0.000120475 -0.000120477 -0.00044056 -7.33673e-05 -0.000118399 -0.000534177
          2.62279e-06 -9.56918e-05 -0.000520769 2.02211e-05 -6.95845e-05 -0.000412159 -2.02852e-05 -6.95899e-05 -0.000412174 -2.66778e-06 -9.57043e-05 -0.000520791
          7.33383e-05 -0.000118413 -0.00053418 0.000120456 -0.00012049 -0.000440549 0.00011391 -0.00010899 -0.000312703 0 -0.000101686 -0.000249031
          0 -7.63892e-05 -0.000323107 -0.000122851 -7.80155e-05 -0.000394141 -0.000118398 -7.33689e-05 -0.000534175 -4.45583e-05 -4.45592e-05 -0.0006214
          5.29244e-05 1.18444e-05 -0.000567231 4.74291e-05 6.32447e-05 -0.000410731 -4.75012e-05 6.32364e-05 -0.000410753 -5.29685e-05 1.18248e-05 -0.000567266
          4.45358e-05 -4.45806e-05 -0.000621413 0.000118384 -7.33883e-05 -0.000534169 0.000122844 -7.80336e-05 -0.000394128 0 -7.64073e-05 -0.000323094
          0 -2.31459e-05 -0.000318588 -0.000119812 -1.848e-05 -0.000389879 -9.56913e-05 2.62144e-06 -0.000520766 1.18449e-05 5.29236e-05 -0.00056723
          0.000128902 0.000128901 -0.000432586 8.52983e-05 0.000191345 -0.000200364 -8.53813e-05 0.000191336 -0.000200395 -0.000128946 0.000128879 -0.00043264
          -1.18595e-05 5.28995e-05 -0.00056726 9.56846e-05 2.59973e-06 -0.00052077 0.000119808 -1.84996e-05 -0.000389872 0 -2.31653e-05 -0.00031858
          0 3.49522e-06 -0.000234308 -0.00011162 7.02092e-06 -0.000301059 -6.95841e-05 2.02203e-05 -0.000412157 6.32454e-05 4.74287e-05 -0.000410731
          0.000191346 8.52981e-05 -0.000200365 0.000115156 0.000115155 9.67278e-05 -0.000115246 0.000115151 9.66894e-05 -0.00019139 8.52878e-05 -0.000200436
          -6.32541e-05 4.74162e-05 -0.000410777 6.95831e-05 2.02077e-05 -0.000412171 0.00011162 7.00842e-06 -0.00030106 0 3.48244e-06 -0.000234307
          0 -3.55591e-06 -0.000234319 -0.000111623 -7.08281e-06 -0.000301071 -6.9589e-05 -2.02853e-05 -0.000412172 6.32377e-05 -4.75009e-05 -0.000410753
          0.000191338 -8.53811e-05 -0.000200397 0.000115153 -0.000115247 9.66887e-05 -0.000115241 -0.000115243 9.66516e-05 -0.00019138 -8.53723e-05 -0.000200465
          -6.3246e-05 -4.74933e-05 -0.000410795 6.95881e-05 -2.02816e-05 -0.000412184 0.000111622 -7.08235e-06 -0.000301069 0 -3.55679e-06 -0.000234315
          0 2.30977e-05 -0.000318602 -0.000119817 1.84322e-05 -0.000389895 -9.57028e-05 -2.66732e-06 -0.000520788 1.18271e-05 -5.29677e-05 -0.000567265
          0.000128883 -0.000128945 -0.000432642 8.52917e-05 -0.00019139 -0.000200437 -8.53683e-05 -0.000191382 -0.000200465 -0.000128923 -0.000128927 -0.000432689
          -1.18408e-05 -5.29504e-05 -0.000567288 9.56962e-05 -2.65577e-06 -0.000520786 0.000119813 1.84393e-05 -0.000389883 0 2.31031e-05 -0.000318589
          0 7.63535e-05 -0.000323106 -0.000122857 7.79811e-05 -0.000394141 -0.000118411 7.33392e-05 -0.000534179 -4.4577e-05 4.45368e-05 -0.000621414
          5.29044e-05 -1.18585e-05 -0.000567263 4.74221e-05 -6.32539e-05 -0.000410779 -4.74871e-05 -6.32471e-05 -0.000410797 -5.29446e-05 -1.18437e-05 -0.000567289
          4.45556e-05 4.45508e-05 -0.000621419 0.000118397 7.33487e-05 -0.000534166 0.00012285 7.79877e-05 -0.000394123 0 7.63592e-05 -0.000323087
          0 0.000101648 -0.000249035 -0.000113926 0.000108954 -0.000312707 -0.000120487 0.000120457 -0.000440551 -7.33835e-05 0.000118386 -0.000534173
          2.6061e-06 9.56858e-05 -0.000520776 2.02152e-05 6.95837e-05 -0.000412176 -2.02736e-05 6.95876e-05 -0.000412188 -2.64808e-06 9.56945e-05 -0.00052079
          7.33553e-05 0.000118394 -0.000534169 0.000120468 0.000120463 -0.000440534 0.000113916 0.000108959 -0.000312687 0 0.000101653 -0.000249015
          0 8.88629e-05 -0.000147926 -9.77506e-05 9.77339e-05 -0.000203378 -0.000108987 0.000113911 -0.000312705 -7.8028e-05 0.000122845 -0.000394133
          -1.84923e-05 0.000119809 -0.000389879 7.01705e-06 0.00011162 -0.000301065 -7.07316e-06 0.000111622 -0.000301073 1.84481e-05 0.000119813 -0.000389887
          7.79953e-05 0.000122849 -0.000394125 0.000108964 0.000113914 -0.000312687 9.77396e-05 9.77369e-05 -0.000203357 0 8.88658e-05 -0.000147906
          0 0 -9.57718e-05 -8.88803e-05 0 -0.000147926 -0.000101682 0 -0.000249033 -7.64015e-05 0 -0.000323098
          -2.31577e-05 0 -0.000318586 3.4913e-06 0 -0.000234311 -3.54738e-06 0 -0.000234319 2.31122e-05 0 -0.000318592
          7.6367e-05 0 -0.000323089 0.000101658 0 -0.000249014 8.88686e-05 0 -0.000147905 0 0 -9.57511e-05
          0 0 -8.54396e-05 -7.98774e-05 0 -0.000132907 0 -7.98785e-05 -0.000132908 -8.85784e-05 -8.85794e-05 -0.000182303
          -9.41275e-05 0 -0.000228174 -0.000102058 -0.000105211 -0.000283501 -7.5664e-05 0 -0.000301362 -7.83232e-05 -0.0001158 -0.000363088
          -2.6442e-05 0 -0.000299291 -2.19089e-05 -0.000113926 -0.000360909 2.50858e-06 0 -0.000212428 6.38831e-06 -0.000105513 -0.00026862
          -2.56637e-06 0 -0.000212439 -6.44763e-06 -0.000105516 -0.000268632 2.63958e-05 0 -0.000299306 2.1863e-05 -0.000113932 -0.000360925
          7.5629e-05 0 -0.00030136 7.82892e-05 -0.000115807 -0.000363088 9.41035e-05 0 -0.000228162 0.000102035 -0.000105217 -0.000283489
          7.98657e-05 0 -0.000132891 8.8567e-05 -8.85865e-05 -0.000182287 0 0 -8.5423e-05 0 -7.9886e-05 -0.000132892
          0 -9.41294e-05 -0.000228175 -0.00010521 -0.00010206 -0.000283501 -0.000115975 -0.000115977 -0.000400161 -7.64942e-05 -0.000117474 -0.000492147
          -2.50301e-07 -9.58609e-05 -0.000480931 2.11743e-05 -6.78303e-05 -0.000366226 -2.12379e-05 -6.78359e-05 -0.000366241 2.05966e-07 -9.58734e-05 -0.000480953
          7.64644e-05 -0.000117488 -0.00049215 0.000115954 -0.000115989 -0.000400151 0.0001052 -0.000102073 -0.000283487 0 -9.4143e-05 -0.00022816
          0 -7.56662e-05 -0.000301361 -0.0001158 -7.83253e-05 -0.000363087 -0.000117473 -7.64958e-05 -0.000492145 -4.94623e-05 -4.94633e-05 -0.00058049
          5.50044e-05 1.12103e-05 -0.000526846 5.2849e-05 7.01073e-05 -0.000357169 -5.29218e-05 7.00981e-05 -0.000357191 -5.50471e-05 1.11894e-05 -0.000526882
          4.94399e-05 -4.94849e-05 -0.000580502 0.000117458 -7.65146e-05 -0.000492139 0.000115792 -7.83426e-05 -0.000363074 0 -7.56836e-05 -0.000301348
          0 -2.6444e-05 -0.000299289 -0.000113926 -2.19107e-05 -0.000360907 -9.58603e-05 -2.51612e-07 -0.000480928 1.12109e-05 5.50037e-05 -0.000526845
          0.000143762 0.000143762 -0.000381549 9.89216e-05 0.000219693 -0.000120372 -9.90076e-05 0.000219683 -0.000120406 -0.000143804 0.000143737 -0.000381608
          -1.12238e-05 5.49778e-05 -0.000526875 9.58529e-05 -2.73722e-07 -0.000480931 0.000113921 -2.19301e-05 -0.0003609 0 -2.6463e-05 -0.000299282
          0 2.50723e-06 -0.000212427 -0.000105513 6.38713e-06 -0.000268618 -6.78298e-05 2.11736e-05 -0.000366224 7.01081e-05 5.28488e-05 -0.000357168
          0.000219694 9.89214e-05 -0.000120373 0.000136403 0.000136402 0.000222528 -0.000136499 0.000136397 0.000222484 -0.000219736 9.89094e-05 -0.000120452
          -7.01137e-05 5.28349e-05 -0.000357217 6.78288e-05 2.11603e-05 -0.000366239 0.000105512 6.37438e-06 -0.00026862 0 2.49436e-06 -0.000212426
          0 -2.56693e-06 -0.000212438 -0.000105515 -6.44805e-06 -0.00026863 -6.7835e-05 -2.1238e-05 -0.000366239 7.00995e-05 -5.29214e-05 -0.000357191
          0.000219684 -9.90074e-05 -0.000120408 0.000136399 -0.000136499 0.000222484 -0.000136492 -0.000136494 0.000222442 -0.000219725 -9.89966e-05 -0.000120483
          -7.0105e-05 -5.29123e-05 -0.000357236 6.78339e-05 -2.12337e-05 -0.000366252 0.000105514 -6.44755e-06 -0.000268629 0 -2.56787e-06 -0.000212435
          0 2.6396e-05 -0.000299304 -0.000113931 2.18633e-05 -0.000360923 -9.58718e-05 2.06549e-07 -0.00048095 1.11919e-05 -5.50463e-05 -0.000526881